 Entering Gaussian System, Link 0=g09
 Input=ch4scan.inp
 Output=ch4scan.log
 Initial command:
 /software/gaussian-09RevA.02-el6-x86_64/g09/l1.exe /home/ilariamerutka/scratch-midway/gaussian-work/Gau-716.inp -scrdir=/home/ilariamerutka/scratch-midway/gaussian-work/
 Entering Link 1 = /software/gaussian-09RevA.02-el6-x86_64/g09/l1.exe PID=       717.
  
 Copyright (c) 1988,1990,1992,1993,1995,1998,2003,2009, Gaussian, Inc.
                  All Rights Reserved.
  
 This is part of the Gaussian(R) 09 program.  It is based on
 the Gaussian(R) 03 system (copyright 2003, Gaussian, Inc.),
 the Gaussian(R) 98 system (copyright 1998, Gaussian, Inc.),
 the Gaussian(R) 94 system (copyright 1995, Gaussian, Inc.),
 the Gaussian 92(TM) system (copyright 1992, Gaussian, Inc.),
 the Gaussian 90(TM) system (copyright 1990, Gaussian, Inc.),
 the Gaussian 88(TM) system (copyright 1988, Gaussian, Inc.),
 the Gaussian 86(TM) system (copyright 1986, Carnegie Mellon
 University), and the Gaussian 82(TM) system (copyright 1983,
 Carnegie Mellon University). Gaussian is a federally registered
 trademark of Gaussian, Inc.
  
 This software contains proprietary and confidential information,
 including trade secrets, belonging to Gaussian, Inc.
  
 This software is provided under written license and may be
 used, copied, transmitted, or stored only in accord with that
 written license.
  
 The following legend is applicable only to US Government
 contracts under FAR:
  
                    RESTRICTED RIGHTS LEGEND
  
 Use, reproduction and disclosure by the US Government is
 subject to restrictions as set forth in subparagraphs (a)
 and (c) of the Commercial Computer Software - Restricted
 Rights clause in FAR 52.227-19.
  
 Gaussian, Inc.
 340 Quinnipiac St., Bldg. 40, Wallingford CT 06492
  
  
 ---------------------------------------------------------------
 Warning -- This program may not be used in any manner that
 competes with the business of Gaussian, Inc. or will provide
 assistance to any competitor of Gaussian, Inc.  The licensee
 of this program is prohibited from giving any competitor of
 Gaussian, Inc. access to this program.  By using this program,
 the user acknowledges that Gaussian, Inc. is engaged in the
 business of creating and licensing software in the field of
 computational chemistry and represents and warrants to the
 licensee that it is not a competitor of Gaussian, Inc. and that
 it will not use this program in any manner prohibited above.
 ---------------------------------------------------------------
  

 Cite this work as:
 Gaussian 09, Revision A.02,
 M. J. Frisch, G. W. Trucks, H. B. Schlegel, G. E. Scuseria, 
 M. A. Robb, J. R. Cheeseman, G. Scalmani, V. Barone, B. Mennucci, 
 G. A. Petersson, H. Nakatsuji, M. Caricato, X. Li, H. P. Hratchian, 
 A. F. Izmaylov, J. Bloino, G. Zheng, J. L. Sonnenberg, M. Hada, 
 M. Ehara, K. Toyota, R. Fukuda, J. Hasegawa, M. Ishida, T. Nakajima, 
 Y. Honda, O. Kitao, H. Nakai, T. Vreven, J. A. Montgomery, Jr., 
 J. E. Peralta, F. Ogliaro, M. Bearpark, J. J. Heyd, E. Brothers, 
 K. N. Kudin, V. N. Staroverov, R. Kobayashi, J. Normand, 
 K. Raghavachari, A. Rendell, J. C. Burant, S. S. Iyengar, J. Tomasi, 
 M. Cossi, N. Rega, J. M. Millam, M. Klene, J. E. Knox, J. B. Cross, 
 V. Bakken, C. Adamo, J. Jaramillo, R. Gomperts, R. E. Stratmann, 
 O. Yazyev, A. J. Austin, R. Cammi, C. Pomelli, J. W. Ochterski, 
 R. L. Martin, K. Morokuma, V. G. Zakrzewski, G. A. Voth, 
 P. Salvador, J. J. Dannenberg, S. Dapprich, A. D. Daniels, 
 O. Farkas, J. B. Foresman, J. V. Ortiz, J. Cioslowski, 
 and D. J. Fox, Gaussian, Inc., Wallingford CT, 2009.
 
 ******************************************
 Gaussian 09:  EM64L-G09RevA.02 11-Jun-2009
                10-Apr-2016 
 ******************************************
 ---------------------------------------------
 #p uhf/6-31g Opt(Z-matrix) Guess=(Always,Mix)
 ---------------------------------------------
 1/10=7,18=40,38=1/1,3;
 2/12=2,17=6,18=5,29=3,40=1/2;
 3/5=1,6=6,11=2,16=1,25=1,30=1,71=1,116=2/1,2,3;
 4/13=-1/1;
 5/5=2,38=5/2;
 6/7=2,8=2,9=2,10=2,28=1/1;
 7/29=1/1,2,3,16;
 1/10=7,18=40/3(2);
 2/29=3/2;
 99//99;
 2/29=3/2;
 3/5=1,6=6,11=2,16=1,25=1,30=1,71=1,116=2/1,2,3;
 4/13=-1/1;
 5/5=2,38=5/2;
 7//1,2,3,16;
 1/18=40/3(-5);
 2/29=3/2;
 6/7=2,8=2,9=2,10=2,19=2,28=1/1;
 99/9=1/99;
 Leave Link    1 at Sun Apr 10 21:50:01 2016, MaxMem=          0 cpu:       0.0
 (Enter /software/gaussian-09RevA.02-el6-x86_64/g09/l101.exe)
 ------------
 CH4 C-H Scan
 ------------
 Symbolic Z-matrix:
 Charge =  0 Multiplicity = 1
 C
 H                    1    B1
 H                    1    B2       2    A1
 H                    1    B3       3    A2       2    D1       0
 H                    1    B4       4    A3       2    D2       0
       Variables:
  B1                    0.6    Scan 30    0.1    
  B2                    1.07                     
  B3                    1.07                     
  B4                    1.07                     
  A1                  109.47122                  
  A2                  109.47122                  
  A3                  109.47122                  
  D1                 -120.                       
  D2                 -120.                       
 
     3 tetrahedral angles replaced.
 NAtoms=      5 NQM=      5 NQMF=      0 NMic=      0 NMicF=      0 NTot=      5.
    3 tetrahedral angles replaced.
                    Isotopes and Nuclear Properties:
 (Nuclear quadrupole moments (NQMom) in fm**2, nuclear magnetic moments (NMagM)
  in nuclear magnetons)

  Atom         1           2           3           4           5
 IAtWgt=          12           1           1           1           1
 AtmWgt=  12.0000000   1.0078250   1.0078250   1.0078250   1.0078250
 NucSpn=           0           1           1           1           1
 AtZEff=   0.0000000   0.0000000   0.0000000   0.0000000   0.0000000
 NQMom=    0.0000000   0.0000000   0.0000000   0.0000000   0.0000000
 NMagM=    0.0000000   2.7928460   2.7928460   2.7928460   2.7928460
 Leave Link  101 at Sun Apr 10 21:50:01 2016, MaxMem=   33554432 cpu:       0.1
 (Enter /software/gaussian-09RevA.02-el6-x86_64/g09/l103.exe)

 GradGradGradGradGradGradGradGradGradGradGradGradGradGradGradGradGradGrad
 Berny optimization.
 Initialization pass.
                       ----------------------------
                       !    Initial Parameters    !
                       ! (Angstroms and Degrees)  !
 ----------------------                            ----------------------
 !      Name          Value   Derivative information (Atomic Units)     !
 ------------------------------------------------------------------------
 !       B1          0.6      Scan                                      !
 !       B2          1.07     estimate D2E/DX2                          !
 !       B3          1.07     estimate D2E/DX2                          !
 !       B4          1.07     estimate D2E/DX2                          !
 !       A1        109.4712   estimate D2E/DX2                          !
 !       A2        109.4712   estimate D2E/DX2                          !
 !       A3        109.4712   estimate D2E/DX2                          !
 !       D1       -120.0      estimate D2E/DX2                          !
 !       D2       -120.0      estimate D2E/DX2                          !
 ------------------------------------------------------------------------
 Trust Radius=3.00D-01 FncErr=1.00D-07 GrdErr=1.00D-07
 Number of optimizations in scan=  31
 Number of steps in this run=  20 maximum allowed number of steps= 100.
 GradGradGradGradGradGradGradGradGradGradGradGradGradGradGradGradGradGrad

 Leave Link  103 at Sun Apr 10 21:50:01 2016, MaxMem=   33554432 cpu:       0.0
 (Enter /software/gaussian-09RevA.02-el6-x86_64/g09/l202.exe)
 ---------------------------------------------------------------------------------------------------
                            Z-MATRIX (ANGSTROMS AND DEGREES)
   CD    Cent   Atom    N1       Length/X        N2       Alpha/Y        N3        Beta/Z          J
 ---------------------------------------------------------------------------------------------------
      1      1  C 
      2      2  H        1   0.600000(     1)
      3      3  H        1   1.070000(     2)      2  109.471(     5)
      4      4  H        1   1.070000(     3)      3  109.471(     6)      2 -120.000(     8)      0
      5      5  H        1   1.070000(     4)      4  109.471(     7)      2 -120.000(     9)      0
 ---------------------------------------------------------------------------------------------------
                         Z-Matrix orientation:                         
 ---------------------------------------------------------------------
 Center     Atomic      Atomic             Coordinates (Angstroms)
 Number     Number       Type             X           Y           Z
 ---------------------------------------------------------------------
      1          6           0        0.000000    0.000000    0.000000
      2          1           0        0.000000    0.000000    0.600000
      3          1           0        1.008806    0.000000   -0.356667
      4          1           0       -0.504403   -0.873651   -0.356667
      5          1           0       -0.504403    0.873651   -0.356667
 ---------------------------------------------------------------------
                    Distance matrix (angstroms):
                    1          2          3          4          5
     1  C    0.000000
     2  H    0.600000   0.000000
     3  H    1.070000   1.390288   0.000000
     4  H    1.070000   1.390288   1.747303   0.000000
     5  H    1.070000   1.390288   1.747303   1.747303   0.000000
 Stoichiometry    CH4
 Framework group  C3V[C3(CH),3SGV(H)]
 Deg. of freedom     3
 Full point group                 C3V     NOp   6
 Largest Abelian subgroup         CS      NOp   2
 Largest concise Abelian subgroup CS      NOp   2
                         Standard orientation:                         
 ---------------------------------------------------------------------
 Center     Atomic      Atomic             Coordinates (Angstroms)
 Number     Number       Type             X           Y           Z
 ---------------------------------------------------------------------
      1          6           0        0.000000    0.000000    0.047000
      2          1           0        0.000000    0.000000    0.647000
      3          1           0        0.000000    1.008806   -0.309667
      4          1           0        0.873651   -0.504403   -0.309667
      5          1           0       -0.873651   -0.504403   -0.309667
 ---------------------------------------------------------------------
 Rotational constants (GHZ):    222.4458366    222.4458366    164.2463644
 Leave Link  202 at Sun Apr 10 21:50:01 2016, MaxMem=   33554432 cpu:       0.0
 (Enter /software/gaussian-09RevA.02-el6-x86_64/g09/l301.exe)
 Standard basis: 6-31G (6D, 7F)
 Ernie: Thresh=  0.10000D-02 Tol=  0.10000D-05 Strict=F.
 There are    13 symmetry adapted basis functions of A'  symmetry.
 There are     4 symmetry adapted basis functions of A"  symmetry.
 Integral buffers will be    131072 words long.
 Raffenetti 2 integral format.
 Two-electron integral symmetry is turned on.
    17 basis functions,    38 primitive gaussians,    17 cartesian basis functions
     5 alpha electrons        5 beta electrons
       nuclear repulsion energy        16.2442526092 Hartrees.
 IExCor=    0 DFT=F Ex=HF Corr=None ExCW=0 ScaHFX=  1.000000
 ScaDFX=  1.000000  1.000000  1.000000  1.000000 ScalE2=  1.000000  1.000000
 IRadAn=      0 IRanWt=     -1 IRanGd=            0 ICorTp=0
 NAtoms=    5 NActive=    5 NUniq=    3 SFac= 2.08D+00 NAtFMM=   80 NAOKFM=F Big=F
 Leave Link  301 at Sun Apr 10 21:50:01 2016, MaxMem=   33554432 cpu:       0.1
 (Enter /software/gaussian-09RevA.02-el6-x86_64/g09/l302.exe)
 NPDir=0 NMtPBC=     1 NCelOv=     1 NCel=       1 NClECP=     1 NCelD=      1
         NCelK=      1 NCelE2=     1 NClLst=     1 CellRange=     0.0.
 One-electron integrals computed using PRISM.
 One-electron integral symmetry used in STVInt
 NBasis=    17 RedAO= T  NBF=    13     4
 NBsUse=    17 1.00D-06 NBFU=    13     4
 Leave Link  302 at Sun Apr 10 21:50:01 2016, MaxMem=   33554432 cpu:       0.1
 (Enter /software/gaussian-09RevA.02-el6-x86_64/g09/l303.exe)
 DipDrv:  MaxL=1.
 Leave Link  303 at Sun Apr 10 21:50:01 2016, MaxMem=   33554432 cpu:       0.0
 (Enter /software/gaussian-09RevA.02-el6-x86_64/g09/l401.exe)
 Harris functional with IExCor=  205 diagonalized for initial guess.
 ExpMin= 1.61D-01 ExpMax= 3.05D+03 ExpMxC= 4.57D+02 IAcc=1 IRadAn=         1 AccDes= 0.00D+00
 HarFok:  IExCor=  205 AccDes= 0.00D+00 IRadAn=         1 IDoV= 1
 ScaDFX=  1.000000  1.000000  1.000000  1.000000
 FoFCou: FMM=F IPFlag=           0 FMFlag=      100000 FMFlg1=           0
         NFxFlg=           0 DoJE=T BraDBF=F KetDBF=T FulRan=T
         Omega=  0.000000  0.000000  1.000000  0.000000  0.000000 ICntrl=     500 IOpCl=  0
         NMat0=    1 NMatS0=    1 NMatT0=    0 NMatD0=    1 NMtDS0=    0 NMtDT0=    0
         I1Cent=           4 NGrid=           0.
 Petite list used in FoFCou.
 Harris En= -40.0045968553598    
 Mixing orbitals, IMix= 1 IMixAn=  0 NRI=1 NE=    5 Coef=  7.07106781D-01  7.07106781D-01
 Mixing orbitals, IMix= 1 IMixAn=  0 NRI=1 NE=    5 Coef= -7.07106781D-01  7.07106781D-01
 Initial guess orbital symmetries:
 Alpha Orbitals:
       Occupied  (A1) (A1) (A1) (?A) (?A)
       Virtual   (?A) (E) (E) (A1) (A1) (E) (E) (E) (E) (A1) (A1)
                 (A1)
 Beta  Orbitals:
       Occupied  (A1) (A1) (A1) (?A) (?A)
       Virtual   (?A) (E) (E) (A1) (A1) (E) (E) (E) (E) (A1) (A1)
                 (A1)
 Initial guess <Sx>= 0.0000 <Sy>= 0.0000 <Sz>= 0.0000 <S**2>= 1.0000 S= 0.6180
 Leave Link  401 at Sun Apr 10 21:50:02 2016, MaxMem=   33554432 cpu:       0.2
 (Enter /software/gaussian-09RevA.02-el6-x86_64/g09/l502.exe)
 UHF open shell SCF:
 Requested convergence on RMS density matrix=1.00D-08 within 128 cycles.
 Requested convergence on MAX density matrix=1.00D-06.
 Requested convergence on             energy=1.00D-06.
 No special actions if energy rises.
 Using DIIS extrapolation, IDIIS=  1040.
 Integral symmetry usage will be decided dynamically.
 Keep R1 and R2 ints in memory in canonical form, NReq=843414.
 IEnd=       19831 IEndB=       19831 NGot=    33554432 MDV=    33528114
 LenX=    33528114 LenY=    33527232
 Symmetry not used in FoFDir.
 MinBra= 0 MaxBra= 1 Meth= 1.
 IRaf=       0 NMat=   1 IRICut=       1 DoRegI=T DoRafI=F ISym2E= 0 JSym2E=0.
 An orbital has undefined symmetry, so N**3 symmetry is turned off.

 Cycle   1  Pass 1  IDiag  1:
 Density matrix breaks symmetry, PCut= 1.00D-04
 Density has only Abelian symmetry.
 E= -39.0711939890728    
 DIIS: error= 9.98D-02 at cycle   1 NSaved=   1.
 NSaved= 1 IEnMin= 1 EnMin= -39.0711939890728     IErMin= 1 ErrMin= 9.98D-02
 ErrMax= 9.98D-02 EMaxC= 1.00D-01 BMatC= 6.27D-01 BMatP= 6.27D-01
 IDIUse=3 WtCom= 1.69D-03 WtEn= 9.98D-01
 Coeff-Com:  0.100D+01
 Coeff-En:   0.100D+01
 Coeff:      0.100D+01
 Gap=     0.364 Goal=   None    Shift=    0.000
 Gap=     0.380 Goal=   None    Shift=    0.000
 GapD=    0.364 DampG=1.000 DampE=0.500 DampFc=0.5000 IDamp=-1.
 Damping current iteration by 5.00D-01
 RMSDP=2.66D-01 MaxDP=2.73D+00              OVMax= 4.98D-01

 Cycle   2  Pass 1  IDiag  1:
 Density matrix breaks symmetry, PCut= 1.00D-07
 Density has only Abelian symmetry.
 E= -39.3073248325049     Delta-E=       -0.236130843432 Rises=F Damp=T
 DIIS: error= 6.53D-02 at cycle   2 NSaved=   2.
 NSaved= 2 IEnMin= 2 EnMin= -39.3073248325049     IErMin= 2 ErrMin= 6.53D-02
 ErrMax= 6.53D-02 EMaxC= 1.00D-01 BMatC= 2.32D-01 BMatP= 6.27D-01
 IDIUse=3 WtCom= 3.47D-01 WtEn= 6.53D-01
 Coeff-Com: -0.109D+01 0.209D+01
 Coeff-En:   0.000D+00 0.100D+01
 Coeff:     -0.377D+00 0.138D+01
 Gap=     0.695 Goal=   None    Shift=    0.000
 Gap=     0.712 Goal=   None    Shift=    0.000
 RMSDP=1.69D-01 MaxDP=1.70D+00 DE=-2.36D-01 OVMax= 1.23D-01

 Cycle   3  Pass 1  IDiag  1:
 Density matrix breaks symmetry, PCut= 1.00D-07
 Density has only Abelian symmetry.
 E= -39.6652366324974     Delta-E=       -0.357911799993 Rises=F Damp=F
 DIIS: error= 2.69D-02 at cycle   3 NSaved=   3.
 NSaved= 3 IEnMin= 3 EnMin= -39.6652366324974     IErMin= 3 ErrMin= 2.69D-02
 ErrMax= 2.69D-02 EMaxC= 1.00D-01 BMatC= 2.95D-02 BMatP= 2.32D-01
 IDIUse=3 WtCom= 7.31D-01 WtEn= 2.69D-01
 Coeff-Com:  0.672D+00-0.151D+01 0.184D+01
 Coeff-En:   0.000D+00 0.000D+00 0.100D+01
 Coeff:      0.491D+00-0.111D+01 0.161D+01
 Gap=     0.798 Goal=   None    Shift=    0.000
 Gap=     0.799 Goal=   None    Shift=    0.000
 RMSDP=2.53D-02 MaxDP=1.42D-01 DE=-3.58D-01 OVMax= 1.29D-01

 Cycle   4  Pass 1  IDiag  1:
 Density matrix breaks symmetry, PCut= 1.00D-07
 Density has only Abelian symmetry.
 E= -39.6941251758017     Delta-E=       -0.028888543304 Rises=F Damp=F
 DIIS: error= 8.80D-03 at cycle   4 NSaved=   4.
 NSaved= 4 IEnMin= 4 EnMin= -39.6941251758017     IErMin= 4 ErrMin= 8.80D-03
 ErrMax= 8.80D-03 EMaxC= 1.00D-01 BMatC= 3.84D-03 BMatP= 2.95D-02
 IDIUse=3 WtCom= 9.12D-01 WtEn= 8.80D-02
 Coeff-Com: -0.214D-01 0.126D+00-0.566D+00 0.146D+01
 Coeff-En:   0.000D+00 0.000D+00 0.000D+00 0.100D+01
 Coeff:     -0.195D-01 0.115D+00-0.516D+00 0.142D+01
 Gap=     0.807 Goal=   None    Shift=    0.000
 Gap=     0.810 Goal=   None    Shift=    0.000
 RMSDP=5.89D-03 MaxDP=3.70D-02 DE=-2.89D-02 OVMax= 4.26D-02

 Cycle   5  Pass 1  IDiag  1:
 Density matrix breaks symmetry, PCut= 1.00D-07
 Density has only Abelian symmetry.
 E= -39.6976779437190     Delta-E=       -0.003552767917 Rises=F Damp=F
 DIIS: error= 3.75D-03 at cycle   5 NSaved=   5.
 NSaved= 5 IEnMin= 5 EnMin= -39.6976779437190     IErMin= 5 ErrMin= 3.75D-03
 ErrMax= 3.75D-03 EMaxC= 1.00D-01 BMatC= 5.18D-04 BMatP= 3.84D-03
 IDIUse=3 WtCom= 9.62D-01 WtEn= 3.75D-02
 Coeff-Com: -0.669D-01 0.109D+00-0.126D-01-0.478D+00 0.145D+01
 Coeff-En:   0.000D+00 0.000D+00 0.000D+00 0.000D+00 0.100D+01
 Coeff:     -0.643D-01 0.105D+00-0.122D-01-0.460D+00 0.143D+01
 Gap=     0.814 Goal=   None    Shift=    0.000
 Gap=     0.814 Goal=   None    Shift=    0.000
 RMSDP=1.91D-03 MaxDP=1.10D-02 DE=-3.55D-03 OVMax= 1.35D-02

 Cycle   6  Pass 1  IDiag  1:
 Density matrix breaks symmetry, PCut= 1.00D-07
 Density has only Abelian symmetry.
 E= -39.6981456625466     Delta-E=       -0.000467718828 Rises=F Damp=F
 DIIS: error= 1.20D-03 at cycle   6 NSaved=   6.
 NSaved= 6 IEnMin= 6 EnMin= -39.6981456625466     IErMin= 6 ErrMin= 1.20D-03
 ErrMax= 1.20D-03 EMaxC= 1.00D-01 BMatC= 5.10D-05 BMatP= 5.18D-04
 IDIUse=3 WtCom= 9.88D-01 WtEn= 1.20D-02
 Coeff-Com:  0.289D-01-0.539D-01 0.682D-01-0.540D-01-0.351D+00 0.136D+01
 Coeff-En:   0.000D+00 0.000D+00 0.000D+00 0.000D+00 0.000D+00 0.100D+01
 Coeff:      0.286D-01-0.533D-01 0.674D-01-0.534D-01-0.347D+00 0.136D+01
 Gap=     0.813 Goal=   None    Shift=    0.000
 Gap=     0.813 Goal=   None    Shift=    0.000
 RMSDP=5.85D-04 MaxDP=2.89D-03 DE=-4.68D-04 OVMax= 3.71D-03

 Cycle   7  Pass 1  IDiag  1:
 Density matrix breaks symmetry, PCut= 1.00D-07
 Density has only Abelian symmetry.
 E= -39.6981906289149     Delta-E=       -0.000044966368 Rises=F Damp=F
 DIIS: error= 2.92D-04 at cycle   7 NSaved=   7.
 NSaved= 7 IEnMin= 7 EnMin= -39.6981906289149     IErMin= 7 ErrMin= 2.92D-04
 ErrMax= 2.92D-04 EMaxC= 1.00D-01 BMatC= 2.84D-06 BMatP= 5.10D-05
 IDIUse=3 WtCom= 9.97D-01 WtEn= 2.92D-03
 Coeff-Com: -0.514D-02 0.910D-02-0.183D-01 0.432D-01 0.356D-01-0.540D+00
 Coeff-Com:  0.148D+01
 Coeff-En:   0.000D+00 0.000D+00 0.000D+00 0.000D+00 0.000D+00 0.000D+00
 Coeff-En:   0.100D+01
 Coeff:     -0.512D-02 0.908D-02-0.183D-01 0.431D-01 0.355D-01-0.538D+00
 Coeff:      0.147D+01
 Gap=     0.813 Goal=   None    Shift=    0.000
 Gap=     0.813 Goal=   None    Shift=    0.000
 RMSDP=1.70D-04 MaxDP=8.57D-04 DE=-4.50D-05 OVMax= 1.05D-03

 Cycle   8  Pass 1  IDiag  1:
 Density matrix breaks symmetry, PCut= 1.00D-07
 Density has only Abelian symmetry.
 E= -39.6981930158984     Delta-E=       -0.000002386984 Rises=F Damp=F
 DIIS: error= 2.50D-05 at cycle   8 NSaved=   8.
 NSaved= 8 IEnMin= 8 EnMin= -39.6981930158984     IErMin= 8 ErrMin= 2.50D-05
 ErrMax= 2.50D-05 EMaxC= 1.00D-01 BMatC= 3.44D-08 BMatP= 2.84D-06
 IDIUse=1 WtCom= 1.00D+00 WtEn= 0.00D+00
 Coeff-Com: -0.888D-04 0.157D-03 0.213D-02-0.107D-01 0.115D-01 0.565D-01
 Coeff-Com: -0.269D+00 0.121D+01
 Coeff:     -0.888D-04 0.157D-03 0.213D-02-0.107D-01 0.115D-01 0.565D-01
 Coeff:     -0.269D+00 0.121D+01
 Gap=     0.813 Goal=   None    Shift=    0.000
 Gap=     0.813 Goal=   None    Shift=    0.000
 RMSDP=1.58D-05 MaxDP=7.42D-05 DE=-2.39D-06 OVMax= 9.72D-05

 Cycle   9  Pass 1  IDiag  1:
 Density matrix breaks symmetry, PCut= 1.00D-07
 Density has only Abelian symmetry.
 E= -39.6981930368644     Delta-E=       -0.000000020966 Rises=F Damp=F
 DIIS: error= 5.82D-06 at cycle   9 NSaved=   9.
 NSaved= 9 IEnMin= 9 EnMin= -39.6981930368644     IErMin= 9 ErrMin= 5.82D-06
 ErrMax= 5.82D-06 EMaxC= 1.00D-01 BMatC= 1.68D-09 BMatP= 3.44D-08
 IDIUse=1 WtCom= 1.00D+00 WtEn= 0.00D+00
 Coeff-Com: -0.553D-04 0.147D-03-0.830D-03 0.344D-02-0.505D-02-0.788D-02
 Coeff-Com:  0.571D-01-0.419D+00 0.137D+01
 Coeff:     -0.553D-04 0.147D-03-0.830D-03 0.344D-02-0.505D-02-0.788D-02
 Coeff:      0.571D-01-0.419D+00 0.137D+01
 Gap=     0.813 Goal=   None    Shift=    0.000
 Gap=     0.813 Goal=   None    Shift=    0.000
 RMSDP=5.08D-06 MaxDP=2.59D-05 DE=-2.10D-08 OVMax= 2.51D-05

 Cycle  10  Pass 1  IDiag  1:
 Density matrix breaks symmetry, PCut= 1.00D-07
 Density has only Abelian symmetry.
 E= -39.6981930380413     Delta-E=       -0.000000001177 Rises=F Damp=F
 DIIS: error= 1.47D-06 at cycle  10 NSaved=  10.
 NSaved=10 IEnMin=10 EnMin= -39.6981930380413     IErMin=10 ErrMin= 1.47D-06
 ErrMax= 1.47D-06 EMaxC= 1.00D-01 BMatC= 1.41D-10 BMatP= 1.68D-09
 IDIUse=1 WtCom= 1.00D+00 WtEn= 0.00D+00
 Coeff-Com:  0.296D-04-0.699D-04 0.272D-03-0.107D-02 0.173D-02 0.105D-02
 Coeff-Com: -0.129D-01 0.129D+00-0.609D+00 0.149D+01
 Coeff:      0.296D-04-0.699D-04 0.272D-03-0.107D-02 0.173D-02 0.105D-02
 Coeff:     -0.129D-01 0.129D+00-0.609D+00 0.149D+01
 Gap=     0.813 Goal=   None    Shift=    0.000
 Gap=     0.813 Goal=   None    Shift=    0.000
 RMSDP=1.02D-06 MaxDP=5.24D-06 DE=-1.18D-09 OVMax= 7.18D-06

 Cycle  11  Pass 1  IDiag  1:
 Density matrix breaks symmetry, PCut= 1.00D-07
 Density has only Abelian symmetry.
 E= -39.6981930381701     Delta-E=       -0.000000000129 Rises=F Damp=F
 DIIS: error= 8.09D-07 at cycle  11 NSaved=  11.
 NSaved=11 IEnMin=11 EnMin= -39.6981930381701     IErMin=11 ErrMin= 8.09D-07
 ErrMax= 8.09D-07 EMaxC= 1.00D-01 BMatC= 3.17D-11 BMatP= 1.41D-10
 IDIUse=1 WtCom= 1.00D+00 WtEn= 0.00D+00
 Coeff-Com: -0.122D-04 0.286D-04-0.146D-03 0.641D-03-0.115D-02 0.190D-04
 Coeff-Com:  0.556D-02-0.776D-01 0.451D+00-0.164D+01 0.226D+01
 Coeff:     -0.122D-04 0.286D-04-0.146D-03 0.641D-03-0.115D-02 0.190D-04
 Coeff:      0.556D-02-0.776D-01 0.451D+00-0.164D+01 0.226D+01
 Gap=     0.813 Goal=   None    Shift=    0.000
 Gap=     0.813 Goal=   None    Shift=    0.000
 RMSDP=7.24D-07 MaxDP=3.19D-06 DE=-1.29D-10 OVMax= 4.01D-06

 Cycle  12  Pass 1  IDiag  1:
 Density matrix breaks symmetry, PCut= 1.00D-07
 Density has only Abelian symmetry.
 E= -39.6981930382093     Delta-E=       -0.000000000039 Rises=F Damp=F
 DIIS: error= 1.97D-07 at cycle  12 NSaved=  12.
 NSaved=12 IEnMin=12 EnMin= -39.6981930382093     IErMin=12 ErrMin= 1.97D-07
 ErrMax= 1.97D-07 EMaxC= 1.00D-01 BMatC= 1.22D-12 BMatP= 3.17D-11
 IDIUse=1 WtCom= 1.00D+00 WtEn= 0.00D+00
 Coeff-Com:  0.200D-05-0.530D-05 0.373D-04-0.171D-03 0.331D-03-0.202D-03
 Coeff-Com: -0.722D-03 0.201D-01-0.137D+00 0.579D+00-0.976D+00 0.151D+01
 Coeff:      0.200D-05-0.530D-05 0.373D-04-0.171D-03 0.331D-03-0.202D-03
 Coeff:     -0.722D-03 0.201D-01-0.137D+00 0.579D+00-0.976D+00 0.151D+01
 Gap=     0.813 Goal=   None    Shift=    0.000
 Gap=     0.813 Goal=   None    Shift=    0.000
 RMSDP=1.29D-07 MaxDP=6.96D-07 DE=-3.91D-11 OVMax= 8.96D-07

 Cycle  13  Pass 1  IDiag  1:
 Density matrix breaks symmetry, PCut= 1.00D-07
 Density has only Abelian symmetry.
 E= -39.6981930382105     Delta-E=       -0.000000000001 Rises=F Damp=F
 DIIS: error= 2.54D-08 at cycle  13 NSaved=  13.
 NSaved=13 IEnMin=13 EnMin= -39.6981930382105     IErMin=13 ErrMin= 2.54D-08
 ErrMax= 2.54D-08 EMaxC= 1.00D-01 BMatC= 3.38D-14 BMatP= 1.22D-12
 IDIUse=1 WtCom= 1.00D+00 WtEn= 0.00D+00
 Coeff-Com: -0.169D-06 0.553D-06-0.378D-05 0.158D-04-0.360D-04 0.810D-04
 Coeff-Com: -0.197D-03-0.167D-02 0.169D-01-0.903D-01 0.176D+00-0.426D+00
 Coeff-Com:  0.132D+01
 Coeff:     -0.169D-06 0.553D-06-0.378D-05 0.158D-04-0.360D-04 0.810D-04
 Coeff:     -0.197D-03-0.167D-02 0.169D-01-0.903D-01 0.176D+00-0.426D+00
 Coeff:      0.132D+01
 Gap=     0.813 Goal=   None    Shift=    0.000
 Gap=     0.813 Goal=   None    Shift=    0.000
 RMSDP=1.96D-08 MaxDP=8.72D-08 DE=-1.21D-12 OVMax= 8.50D-08

 Cycle  14  Pass 1  IDiag  1:
 E= -39.6981930382105     Delta-E=        0.000000000000 Rises=F Damp=F
 DIIS: error= 6.85D-10 at cycle  14 NSaved=  14.
 NSaved=14 IEnMin=14 EnMin= -39.6981930382105     IErMin=14 ErrMin= 6.85D-10
 ErrMax= 6.85D-10 EMaxC= 1.00D-01 BMatC= 4.42D-17 BMatP= 3.38D-14
 IDIUse=1 WtCom= 1.00D+00 WtEn= 0.00D+00
 Coeff-Com: -0.193D-07 0.377D-07-0.139D-06 0.551D-06-0.691D-06-0.167D-05
 Coeff-Com:  0.908D-05-0.588D-04 0.313D-03-0.121D-02 0.121D-02 0.126D-02
 Coeff-Com: -0.174D-01 0.102D+01
 Coeff:     -0.193D-07 0.377D-07-0.139D-06 0.551D-06-0.691D-06-0.167D-05
 Coeff:      0.908D-05-0.588D-04 0.313D-03-0.121D-02 0.121D-02 0.126D-02
 Coeff:     -0.174D-01 0.102D+01
 Gap=     0.813 Goal=   None    Shift=    0.000
 Gap=     0.813 Goal=   None    Shift=    0.000
 RMSDP=1.78D-09 MaxDP=9.75D-09 DE=-4.26D-14 OVMax= 1.04D-08

 SCF Done:  E(UHF) =  -39.6981930382     A.U. after   14 cycles
             Convg  =    0.1779D-08             -V/T =  1.9530
 <Sx>= 0.0000 <Sy>= 0.0000 <Sz>= 0.0000 <S**2>= 0.0000 S= 0.0000
 <L.S>= 0.000000000000E+00
 KE= 4.165726052889D+01 PE=-1.256002014704D+02 EE= 2.800049529404D+01
 Annihilation of the first spin contaminant:
 S**2 before annihilation     0.0000,   after     0.0000
 Leave Link  502 at Sun Apr 10 21:50:02 2016, MaxMem=   33554432 cpu:       0.1
 (Enter /software/gaussian-09RevA.02-el6-x86_64/g09/l601.exe)
 Copying SCF densities to generalized density rwf, IOpCl= 1 IROHF=0.

 **********************************************************************

            Population analysis using the SCF density.

 **********************************************************************

 Orbital symmetries:
 Alpha Orbitals:
       Occupied  (A1) (A1) (A1) (E) (E)
       Virtual   (A1) (E) (E) (A1) (A1) (E) (E) (E) (E) (A1) (A1)
                 (A1)
 Beta  Orbitals:
       Occupied  (A1) (A1) (A1) (E) (E)
       Virtual   (A1) (E) (E) (A1) (A1) (E) (E) (E) (E) (A1) (A1)
                 (A1)
 The electronic state is 1-A1.
 Alpha  occ. eigenvalues --  -11.18947  -1.04191  -0.64504  -0.54727  -0.54727
 Alpha virt. eigenvalues --    0.26573   0.32923   0.32923   0.40186   0.60266
 Alpha virt. eigenvalues --    0.74322   0.74322   1.23926   1.23926   1.27058
 Alpha virt. eigenvalues --    1.38651   2.42455
  Beta  occ. eigenvalues --  -11.18947  -1.04191  -0.64504  -0.54727  -0.54727
  Beta virt. eigenvalues --    0.26573   0.32923   0.32923   0.40186   0.60266
  Beta virt. eigenvalues --    0.74322   0.74322   1.23926   1.23926   1.27058
  Beta virt. eigenvalues --    1.38651   2.42455
          Condensed to atoms (all electrons):
              1          2          3          4          5
     1  C    4.908981   0.326387   0.412730   0.412730   0.412730
     2  H    0.326387   0.759272  -0.048518  -0.048518  -0.048518
     3  H    0.412730  -0.048518   0.551171  -0.026635  -0.026635
     4  H    0.412730  -0.048518  -0.026635   0.551171  -0.026635
     5  H    0.412730  -0.048518  -0.026635  -0.026635   0.551171
 Mulliken atomic charges:
              1
     1  C   -0.473558
     2  H    0.059895
     3  H    0.137888
     4  H    0.137888
     5  H    0.137888
 Sum of Mulliken atomic charges =   0.00000
 Mulliken charges with hydrogens summed into heavy atoms:
              1
     1  C    0.000000
 Sum of Mulliken charges with hydrogens summed into heavy atoms =   0.00000
          Atomic-Atomic Spin Densities.
              1          2          3          4          5
     1  C    0.000000   0.000000   0.000000   0.000000   0.000000
     2  H    0.000000   0.000000   0.000000   0.000000   0.000000
     3  H    0.000000   0.000000   0.000000   0.000000   0.000000
     4  H    0.000000   0.000000   0.000000   0.000000   0.000000
     5  H    0.000000   0.000000   0.000000   0.000000   0.000000
 Mulliken atomic spin densities:
              1
     1  C    0.000000
     2  H    0.000000
     3  H    0.000000
     4  H    0.000000
     5  H    0.000000
 Sum of Mulliken atomic spin densities =   0.00000
 Electronic spatial extent (au):  <R**2>=             30.9949
 Charge=              0.0000 electrons
 Dipole moment (field-independent basis, Debye):
    X=              0.0000    Y=              0.0000    Z=              0.0433  Tot=              0.0433
 Quadrupole moment (field-independent basis, Debye-Ang):
   XX=             -7.7591   YY=             -7.7591   ZZ=             -8.0505
   XY=              0.0000   XZ=              0.0000   YZ=              0.0000
 Traceless Quadrupole moment (field-independent basis, Debye-Ang):
   XX=              0.0971   YY=              0.0971   ZZ=             -0.1943
   XY=              0.0000   XZ=              0.0000   YZ=              0.0000
 Octapole moment (field-independent basis, Debye-Ang**2):
  XXX=              0.0000  YYY=              0.4679  ZZZ=              0.9335  XYY=              0.0000
  XXY=             -0.4679  XXZ=              0.0712  XZZ=              0.0000  YZZ=              0.0000
  YYZ=              0.0712  XYZ=              0.0000
 Hexadecapole moment (field-independent basis, Debye-Ang**3):
 XXXX=            -14.1988 YYYY=            -14.1988 ZZZZ=             -9.6606 XXXY=              0.0000
 XXXZ=              0.0000 YYYX=              0.0000 YYYZ=             -0.2520 ZZZX=              0.0000
 ZZZY=              0.0000 XXYY=             -4.7329 XXZZ=             -3.9879 YYZZ=             -3.9879
 XXYZ=              0.2520 YYXZ=              0.0000 ZZXY=              0.0000
 N-N= 1.624425260924D+01 E-N=-1.884003022111D+02  KE= 6.248589079468D+01
 Symmetry A'   KE= 5.955926455262D+01
 Symmetry A"   KE= 2.926626242059D+00
                          Isotropic Fermi Contact Couplings
        Atom                 a.u.       MegaHertz       Gauss      10(-4) cm-1
     1  C(13)              0.00000       0.00000       0.00000       0.00000
     2  H(1)               0.00000       0.00000       0.00000       0.00000
     3  H(1)               0.00000       0.00000       0.00000       0.00000
     4  H(1)               0.00000       0.00000       0.00000       0.00000
     5  H(1)               0.00000       0.00000       0.00000       0.00000
 --------------------------------------------------------
       Center         ----  Spin Dipole Couplings  ----
                      3XX-RR        3YY-RR        3ZZ-RR
 --------------------------------------------------------
     1   Atom        0.000000      0.000000      0.000000
     2   Atom        0.000000      0.000000      0.000000
     3   Atom        0.000000      0.000000      0.000000
     4   Atom        0.000000      0.000000      0.000000
     5   Atom        0.000000      0.000000      0.000000
 --------------------------------------------------------
                        XY            XZ            YZ
 --------------------------------------------------------
     1   Atom        0.000000      0.000000      0.000000
     2   Atom        0.000000      0.000000      0.000000
     3   Atom        0.000000      0.000000      0.000000
     4   Atom        0.000000      0.000000      0.000000
     5   Atom        0.000000      0.000000      0.000000
 --------------------------------------------------------


 ---------------------------------------------------------------------------------
              Anisotropic Spin Dipole Couplings in Principal Axis System
 ---------------------------------------------------------------------------------

       Atom             a.u.   MegaHertz   Gauss  10(-4) cm-1        Axes

              Baa     0.0000     0.000     0.000     0.000  0.0350  0.9994  0.0000
     1 C(13)  Bbb     0.0000     0.000     0.000     0.000  0.9994 -0.0350  0.0000
              Bcc     0.0000     0.000     0.000     0.000  0.0000  0.0000  1.0000
 
              Baa     0.0000     0.000     0.000     0.000  0.0000  0.0000  1.0000
     2 H(1)   Bbb     0.0000     0.000     0.000     0.000 -0.0567  0.9984  0.0000
              Bcc     0.0000     0.000     0.000     0.000  0.9984  0.0567  0.0000
 
              Baa     0.0000     0.000     0.000     0.000  0.0000 -0.6295  0.7770
     3 H(1)   Bbb     0.0000     0.000     0.000     0.000  1.0000  0.0000  0.0000
              Bcc     0.0000     0.000     0.000     0.000  0.0000  0.7770  0.6295
 
              Baa     0.0000     0.000     0.000     0.000 -0.5452  0.3148  0.7770
     4 H(1)   Bbb     0.0000     0.000     0.000     0.000  0.5000  0.8660  0.0000
              Bcc     0.0000     0.000     0.000     0.000  0.6729 -0.3885  0.6295
 
              Baa     0.0000     0.000     0.000     0.000  0.5452  0.3148  0.7770
     5 H(1)   Bbb     0.0000     0.000     0.000     0.000 -0.5000  0.8660  0.0000
              Bcc     0.0000     0.000     0.000     0.000  0.6729  0.3885 -0.6295
 

 ---------------------------------------------------------------------------------

 No NMR shielding tensors so no spin-rotation constants.
 Leave Link  601 at Sun Apr 10 21:50:02 2016, MaxMem=   33554432 cpu:       0.2
 (Enter /software/gaussian-09RevA.02-el6-x86_64/g09/l701.exe)
 Compute integral first derivatives.
 ... and contract with generalized density number  0.
 Leave Link  701 at Sun Apr 10 21:50:02 2016, MaxMem=   33554432 cpu:       0.1
 (Enter /software/gaussian-09RevA.02-el6-x86_64/g09/l702.exe)
 L702 exits ... SP integral derivatives will be done elsewhere.
 Leave Link  702 at Sun Apr 10 21:50:02 2016, MaxMem=   33554432 cpu:       0.0
 (Enter /software/gaussian-09RevA.02-el6-x86_64/g09/l703.exe)
 Compute integral first derivatives, UseDBF=F ICtDFT=           0.
 Integral derivatives from FoFDir, PRISM(SPDF).
 Calling FoFJK, ICntrl=      2127 FMM=F ISym2X=1 I1Cent= 0 IOpClX= 1 NMat=1 NMatS=1 NMatT=0.
 FoFCou: FMM=F IPFlag=           0 FMFlag=      100000 FMFlg1=         800
         NFxFlg=           0 DoJE=F BraDBF=F KetDBF=F FulRan=T
         Omega=  0.000000  0.000000  1.000000  0.000000  0.000000 ICntrl=    2127 IOpCl=  1
         NMat0=    1 NMatS0=    1 NMatT0=    0 NMatD0=    1 NMtDS0=    0 NMtDT0=    0
         I1Cent=           0 NGrid=           0.
 Petite list used in FoFCou.
 Leave Link  703 at Sun Apr 10 21:50:02 2016, MaxMem=   33554432 cpu:       0.1
 (Enter /software/gaussian-09RevA.02-el6-x86_64/g09/l716.exe)
 Dipole        =-2.22044605D-16 0.00000000D+00 1.70237929D-02
 ***** Axes restored to original set *****
 -------------------------------------------------------------------
 Center     Atomic                   Forces (Hartrees/Bohr)
 Number     Number              X              Y              Z
 -------------------------------------------------------------------
      1        6           0.000000000    0.000000000   -1.758273578
      2        1           0.000000000    0.000000000    1.779553752
      3        1           0.002112009    0.000000000   -0.007093391
      4        1          -0.001056005   -0.001829054   -0.007093391
      5        1          -0.001056005    0.001829054   -0.007093391
 -------------------------------------------------------------------
 Cartesian Forces:  Max     1.779553752 RMS     0.645936110
 -----------------------------------------------------------------------------------------------
                       Internal Coordinate Forces (Hartree/Bohr or radian)
  Cent   Atom   N1       Length/X         N2         Alpha/Y        N3         Beta/Z          J
 -----------------------------------------------------------------------------------------------
      1  C 
      2  H        1   1.779554(     1)
      3  H        1   0.004356(     2)      2   0.009074(     5)
      4  H        1   0.004356(     3)      3  -0.003025(     6)      2  -0.004939(     8)     0
      5  H        1   0.004356(     4)      4  -0.006050(     7)      2  -0.009879(     9)     0
 -----------------------------------------------------------------------------------------------
 Internal  Forces:  Max     1.779553752 RMS     0.593213336
 Force constants in Cartesian coordinates: 
                1             2             3             4             5 
      1  0.868893D+00
      2  0.000000D+00  0.868893D+00
      3  0.000000D+00  0.000000D+00  0.396473D+01
      4 -0.224306D+00  0.000000D+00  0.000000D+00  0.188132D+00
      5  0.000000D+00 -0.224306D+00  0.000000D+00  0.000000D+00  0.188132D+00
      6  0.000000D+00  0.000000D+00 -0.362830D+01  0.000000D+00  0.000000D+00
      7 -0.350056D+00  0.000000D+00  0.919787D-01  0.233727D-01  0.000000D+00
      8  0.000000D+00 -0.796690D-01  0.000000D+00  0.000000D+00  0.743374D-03
      9  0.629194D-01  0.000000D+00 -0.112146D+00  0.661079D-01  0.000000D+00
     10 -0.147266D+00 -0.117081D+00 -0.459894D-01  0.640070D-02  0.979877D-02
     11 -0.117081D+00 -0.282459D+00 -0.796559D-01  0.979877D-02  0.177153D-01
     12 -0.314597D-01 -0.544898D-01 -0.112146D+00 -0.330539D-01 -0.572511D-01
     13 -0.147266D+00  0.117081D+00 -0.459894D-01  0.640070D-02 -0.979877D-02
     14  0.117081D+00 -0.282459D+00  0.796559D-01 -0.979877D-02  0.177153D-01
     15 -0.314597D-01  0.544898D-01 -0.112146D+00 -0.330539D-01  0.572511D-01
                6             7             8             9            10 
      6  0.362830D+01
      7  0.000000D+00  0.337515D+00
      8  0.000000D+00  0.000000D+00  0.590831D-01
      9  0.000000D+00 -0.983891D-01  0.000000D+00  0.940145D-01
     10  0.000000D+00 -0.541610D-02 -0.283836D-01 -0.153190D-01  0.128691D+00
     11  0.000000D+00  0.181846D-02  0.992128D-02  0.514339D-02  0.120565D+00
     12  0.000000D+00  0.320522D-02  0.158384D-01  0.906573D-02  0.491946D-01
     13  0.000000D+00 -0.541610D-02  0.283836D-01 -0.153190D-01  0.175900D-01
     14  0.000000D+00 -0.181846D-02  0.992128D-02 -0.514339D-02  0.151010D-01
     15  0.000000D+00  0.320522D-02 -0.158384D-01  0.906573D-02  0.121138D-01
               11            12            13            14            15 
     11  0.267907D+00
     12  0.852075D-01  0.940145D-01
     13 -0.151010D-01  0.121138D-01  0.128691D+00
     14 -0.130848D-01  0.106950D-01 -0.120565D+00  0.267907D+00
     15 -0.106950D-01  0.906573D-02  0.491946D-01 -0.852075D-01  0.940145D-01
 Force constants in internal coordinates: 
                1             2             3             4             5 
      1  0.362830D+01
      2  0.000000D+00  0.372301D+00
      3  0.000000D+00  0.000000D+00  0.372301D+00
      4  0.000000D+00  0.000000D+00  0.000000D+00  0.372301D+00
      5  0.000000D+00  0.000000D+00  0.000000D+00  0.000000D+00  0.301655D+00
      6  0.000000D+00  0.000000D+00  0.000000D+00  0.000000D+00  0.139772D+00
      7  0.000000D+00  0.000000D+00  0.000000D+00  0.000000D+00  0.386145D-01
      8  0.000000D+00  0.000000D+00  0.000000D+00  0.000000D+00  0.324967D-01
      9  0.000000D+00  0.000000D+00  0.000000D+00  0.000000D+00 -0.131209D+00
                6             7             8             9 
      6  0.300567D+00
      7  0.405454D-01  0.241711D+00
      8  0.320944D-01 -0.662687D-01  0.162194D+00
      9 -0.130035D+00  0.243050D-03  0.760339D-03  0.215119D+00
 Leave Link  716 at Sun Apr 10 21:50:02 2016, MaxMem=   33554432 cpu:       0.1
 (Enter /software/gaussian-09RevA.02-el6-x86_64/g09/l103.exe)

 GradGradGradGradGradGradGradGradGradGradGradGradGradGradGradGradGradGrad
 Berny optimization.
 Search for a local minimum.
 Step number   1 out of a maximum of   20 on scan point     1 out of    31
 All quantities printed in internal units (Hartrees-Bohrs-Radians)
 Second derivative matrix not updated -- first step.
 The second derivative matrix:
                          B1        B2        B3        B4        A1
           B1           3.62830
           B2           0.00000   0.37230
           B3           0.00000   0.00000   0.37230
           B4           0.00000   0.00000   0.00000   0.37230
           A1           0.00000   0.00000   0.00000   0.00000   0.30166
           A2           0.00000   0.00000   0.00000   0.00000   0.13977
           A3           0.00000   0.00000   0.00000   0.00000   0.03861
           D1           0.00000   0.00000   0.00000   0.00000   0.03250
           D2           0.00000   0.00000   0.00000   0.00000  -0.13121
                          A2        A3        D1        D2
           A2           0.30057
           A3           0.04055   0.24171
           D1           0.03209  -0.06627   0.16219
           D2          -0.13003   0.00024   0.00076   0.21512
     Eigenvalues ---    0.08004   0.14718   0.16135   0.27828   0.37230
     Eigenvalues ---    0.37230   0.37230   0.554391000.00000
 RFO step:  Lambda=-1.48902251D-03 EMin= 8.00436479D-02
 Linear search not attempted -- first point.
 Variable       Old X    -DE/DX   Delta X   Delta X   Delta X     New X
                                 (Linear)    (Quad)   (Total)
    B1        1.13384   1.77955   0.00000   0.00000   0.00000   1.13384
    B2        2.02201   0.00436   0.00000   0.01165   0.01165   2.03366
    B3        2.02201   0.00436   0.00000   0.01165   0.01165   2.03366
    B4        2.02201   0.00436   0.00000   0.01165   0.01165   2.03366
    A1        1.91063   0.00907   0.00000   0.03686   0.03686   1.94749
    A2        1.91063  -0.00302   0.00000  -0.03680  -0.03680   1.87384
    A3        1.91063  -0.00605   0.00000  -0.03680  -0.03680   1.87383
    D1       -2.09440  -0.00494   0.00000  -0.04497  -0.04497  -2.13936
    D2       -2.09440  -0.00988   0.00000  -0.04517  -0.04517  -2.13957
         Item               Value     Threshold  Converged?
 Maximum Force            0.009879     0.000450     NO 
 RMS     Force            0.006195     0.000300     NO 
 Maximum Displacement     0.045173     0.001800     NO 
 RMS     Displacement     0.030798     0.001200     NO 
 Predicted change in Energy=-7.508665D-04
 GradGradGradGradGradGradGradGradGradGradGradGradGradGradGradGradGradGrad

 Leave Link  103 at Sun Apr 10 21:50:02 2016, MaxMem=   33554432 cpu:       0.0
 (Enter /software/gaussian-09RevA.02-el6-x86_64/g09/l202.exe)
 ---------------------------------------------------------------------------------------------------
                            Z-MATRIX (ANGSTROMS AND DEGREES)
   CD    Cent   Atom    N1       Length/X        N2       Alpha/Y        N3        Beta/Z          J
 ---------------------------------------------------------------------------------------------------
      1      1  C 
      2      2  H        1   0.600000(     1)
      3      3  H        1   1.076166(     2)      2  111.583(     5)
      4      4  H        1   1.076166(     3)      3  107.363(     6)      2 -122.576(     8)      0
      5      5  H        1   1.076166(     4)      4  107.363(     7)      2 -122.588(     9)      0
 ---------------------------------------------------------------------------------------------------
                         Z-Matrix orientation:                         
 ---------------------------------------------------------------------
 Center     Atomic      Atomic             Coordinates (Angstroms)
 Number     Number       Type             X           Y           Z
 ---------------------------------------------------------------------
      1          6           0        0.000000    0.000000    0.000000
      2          1           0        0.000000    0.000000    0.600000
      3          1           0        1.000712    0.000000   -0.395866
      4          1           0       -0.502066   -0.865535   -0.396122
      5          1           0       -0.496597    0.868668   -0.396159
 ---------------------------------------------------------------------
                    Distance matrix (angstroms):
                    1          2          3          4          5
     1  C    0.000000
     2  H    0.600000   0.000000
     3  H    1.076166   1.411798   0.000000
     4  H    1.076166   1.411907   1.734213   0.000000
     5  H    1.076166   1.411923   1.731045   1.734211   0.000000
 Stoichiometry    CH4
 Framework group  C1[X(CH4)]
 Deg. of freedom     9
 Full point group                 C1      NOp   1
 Omega: Change in point group or standard orientation.

 Old FWG=C03V [C3(C1H1),3SGV(H1)]
 New FWG=C01  [X(C1H4)]
 Largest Abelian subgroup         C1      NOp   1
 Largest concise Abelian subgroup C1      NOp   1
                         Standard orientation:                         
 ---------------------------------------------------------------------
 Center     Atomic      Atomic             Coordinates (Angstroms)
 Number     Number       Type             X           Y           Z
 ---------------------------------------------------------------------
      1          6           0       -0.000469    0.000004    0.058814
      2          1           0       -0.001442   -0.000155    0.658813
      3          1           0        0.502463   -0.865412   -0.336467
      4          1           0       -1.000436   -0.000091   -0.338930
      5          1           0        0.502230    0.865633   -0.336300
 ---------------------------------------------------------------------
 Rotational constants (GHZ):    217.3554178    216.6677818    166.9380621
 Leave Link  202 at Sun Apr 10 21:50:02 2016, MaxMem=   33554432 cpu:       0.0
 (Enter /software/gaussian-09RevA.02-el6-x86_64/g09/l301.exe)
 Standard basis: 6-31G (6D, 7F)
 Ernie: Thresh=  0.10000D-02 Tol=  0.10000D-05 Strict=F.
 There are    17 symmetry adapted basis functions of A   symmetry.
 Integral buffers will be    131072 words long.
 Raffenetti 2 integral format.
 Two-electron integral symmetry is turned on.
    17 basis functions,    38 primitive gaussians,    17 cartesian basis functions
     5 alpha electrons        5 beta electrons
       nuclear repulsion energy        16.1832013954 Hartrees.
 IExCor=    0 DFT=F Ex=HF Corr=None ExCW=0 ScaHFX=  1.000000
 ScaDFX=  1.000000  1.000000  1.000000  1.000000 ScalE2=  1.000000  1.000000
 IRadAn=      0 IRanWt=     -1 IRanGd=            0 ICorTp=0
 NAtoms=    5 NActive=    5 NUniq=    5 SFac= 7.50D-01 NAtFMM=   80 NAOKFM=F Big=F
 Leave Link  301 at Sun Apr 10 21:50:02 2016, MaxMem=   33554432 cpu:       0.1
 (Enter /software/gaussian-09RevA.02-el6-x86_64/g09/l302.exe)
 NPDir=0 NMtPBC=     1 NCelOv=     1 NCel=       1 NClECP=     1 NCelD=      1
         NCelK=      1 NCelE2=     1 NClLst=     1 CellRange=     0.0.
 One-electron integrals computed using PRISM.
 NBasis=    17 RedAO= T  NBF=    17
 NBsUse=    17 1.00D-06 NBFU=    17
 Leave Link  302 at Sun Apr 10 21:50:03 2016, MaxMem=   33554432 cpu:       0.2
 (Enter /software/gaussian-09RevA.02-el6-x86_64/g09/l303.exe)
 DipDrv:  MaxL=1.
 Leave Link  303 at Sun Apr 10 21:50:03 2016, MaxMem=   33554432 cpu:       0.1
 (Enter /software/gaussian-09RevA.02-el6-x86_64/g09/l401.exe)
 Harris functional with IExCor=  205 diagonalized for initial guess.
 ExpMin= 1.61D-01 ExpMax= 3.05D+03 ExpMxC= 4.57D+02 IAcc=1 IRadAn=         1 AccDes= 0.00D+00
 HarFok:  IExCor=  205 AccDes= 0.00D+00 IRadAn=         1 IDoV= 1
 ScaDFX=  1.000000  1.000000  1.000000  1.000000
 FoFCou: FMM=F IPFlag=           0 FMFlag=      100000 FMFlg1=           0
         NFxFlg=           0 DoJE=T BraDBF=F KetDBF=T FulRan=T
         Omega=  0.000000  0.000000  1.000000  0.000000  0.000000 ICntrl=     500 IOpCl=  0
         NMat0=    1 NMatS0=    1 NMatT0=    0 NMatD0=    1 NMtDS0=    0 NMtDT0=    0
         I1Cent=           4 NGrid=           0.
 Petite list used in FoFCou.
 Harris En= -40.0029447754611    
 Mixing orbitals, IMix= 1 IMixAn=  0 NRI=1 NE=    5 Coef=  7.07106781D-01  7.07106781D-01
 Mixing orbitals, IMix= 1 IMixAn=  0 NRI=1 NE=    5 Coef= -7.07106781D-01  7.07106781D-01
 Initial guess orbital symmetries:
 Alpha Orbitals:
       Occupied  (A) (A) (A) (A) (A)
       Virtual   (A) (A) (A) (A) (A) (A) (A) (A) (A) (A) (A) (A)
 Beta  Orbitals:
       Occupied  (A) (A) (A) (A) (A)
       Virtual   (A) (A) (A) (A) (A) (A) (A) (A) (A) (A) (A) (A)
 The electronic state of the initial guess is 1-A.
 Initial guess <Sx>= 0.0000 <Sy>= 0.0000 <Sz>= 0.0000 <S**2>= 1.0000 S= 0.6180
 Leave Link  401 at Sun Apr 10 21:50:03 2016, MaxMem=   33554432 cpu:       0.2
 (Enter /software/gaussian-09RevA.02-el6-x86_64/g09/l502.exe)
 UHF open shell SCF:
 Requested convergence on RMS density matrix=1.00D-08 within 128 cycles.
 Requested convergence on MAX density matrix=1.00D-06.
 Requested convergence on             energy=1.00D-06.
 No special actions if energy rises.
 Using DIIS extrapolation, IDIIS=  1040.
 Integral symmetry usage will be decided dynamically.
 Keep R1 and R2 ints in memory in canonical form, NReq=843342.
 IEnd=       19759 IEndB=       19759 NGot=    33554432 MDV=    33528186
 LenX=    33528186 LenY=    33527304
 Symmetry not used in FoFDir.
 MinBra= 0 MaxBra= 1 Meth= 1.
 IRaf=       0 NMat=   1 IRICut=       1 DoRegI=T DoRafI=F ISym2E= 0 JSym2E=0.

 Cycle   1  Pass 1  IDiag  1:
 E= -39.0771864149885    
 DIIS: error= 1.12D-01 at cycle   1 NSaved=   1.
 NSaved= 1 IEnMin= 1 EnMin= -39.0771864149885     IErMin= 1 ErrMin= 1.12D-01
 ErrMax= 1.12D-01 EMaxC= 1.00D-01 BMatC= 6.20D-01 BMatP= 6.20D-01
 IDIUse=3 WtCom= 0.00D+00 WtEn= 1.00D+00
 Coeff-Com:  0.100D+01
 Coeff-En:   0.100D+01
 Coeff:      0.100D+01
 Gap=     0.371 Goal=   None    Shift=    0.000
 Gap=     0.371 Goal=   None    Shift=    0.000
 GapD=    0.371 DampG=1.000 DampE=0.250 DampFc=0.2500 IDamp=-1.
 Damping current iteration by 2.50D-01
 RMSDP=2.63D-01 MaxDP=2.66D+00              OVMax= 4.82D-01

 Cycle   2  Pass 1  IDiag  1:
 E= -39.1859166479761     Delta-E=       -0.108730232988 Rises=F Damp=T
 DIIS: error= 9.80D-02 at cycle   2 NSaved=   2.
 NSaved= 2 IEnMin= 2 EnMin= -39.1859166479761     IErMin= 2 ErrMin= 9.80D-02
 ErrMax= 9.80D-02 EMaxC= 1.00D-01 BMatC= 3.95D-01 BMatP= 6.20D-01
 IDIUse=3 WtCom= 1.99D-02 WtEn= 9.80D-01
 Coeff-Com: -0.316D+01 0.416D+01
 Coeff-En:   0.000D+00 0.100D+01
 Coeff:     -0.629D-01 0.106D+01
 Gap=     0.624 Goal=   None    Shift=    0.000
 Gap=     0.624 Goal=   None    Shift=    0.000
 RMSDP=2.15D-01 MaxDP=2.17D+00 DE=-1.09D-01 OVMax= 5.25D-02

 Cycle   3  Pass 1  IDiag  1:
 E= -39.6374832872153     Delta-E=       -0.451566639239 Rises=F Damp=F
 DIIS: error= 4.82D-02 at cycle   3 NSaved=   3.
 NSaved= 3 IEnMin= 3 EnMin= -39.6374832872153     IErMin= 3 ErrMin= 4.82D-02
 ErrMax= 4.82D-02 EMaxC= 1.00D-01 BMatC= 5.71D-02 BMatP= 3.95D-01
 IDIUse=3 WtCom= 5.18D-01 WtEn= 4.82D-01
 Coeff-Com:  0.339D+01-0.457D+01 0.218D+01
 Coeff-En:   0.000D+00 0.000D+00 0.100D+01
 Coeff:      0.176D+01-0.237D+01 0.161D+01
 Gap=     0.765 Goal=   None    Shift=    0.000
 Gap=     0.765 Goal=   None    Shift=    0.000
 RMSDP=3.75D-02 MaxDP=2.66D-01 DE=-4.52D-01 OVMax= 1.45D-01

 Cycle   4  Pass 1  IDiag  1:
 E= -39.6869096067377     Delta-E=       -0.049426319522 Rises=F Damp=F
 DIIS: error= 2.14D-02 at cycle   4 NSaved=   4.
 NSaved= 4 IEnMin= 4 EnMin= -39.6869096067377     IErMin= 4 ErrMin= 2.14D-02
 ErrMax= 2.14D-02 EMaxC= 1.00D-01 BMatC= 1.07D-02 BMatP= 5.71D-02
 IDIUse=3 WtCom= 7.86D-01 WtEn= 2.14D-01
 Coeff-Com: -0.124D-01-0.517D-01-0.329D+00 0.139D+01
 Coeff-En:   0.000D+00 0.000D+00 0.000D+00 0.100D+01
 Coeff:     -0.977D-02-0.407D-01-0.259D+00 0.131D+01
 Gap=     0.809 Goal=   None    Shift=    0.000
 Gap=     0.809 Goal=   None    Shift=    0.000
 RMSDP=1.23D-02 MaxDP=6.80D-02 DE=-4.94D-02 OVMax= 7.39D-02

 Cycle   5  Pass 1  IDiag  1:
 E= -39.6971663250707     Delta-E=       -0.010256718333 Rises=F Damp=F
 DIIS: error= 6.43D-03 at cycle   5 NSaved=   5.
 NSaved= 5 IEnMin= 5 EnMin= -39.6971663250707     IErMin= 5 ErrMin= 6.43D-03
 ErrMax= 6.43D-03 EMaxC= 1.00D-01 BMatC= 1.73D-03 BMatP= 1.07D-02
 IDIUse=3 WtCom= 9.36D-01 WtEn= 6.43D-02
 Coeff-Com:  0.151D+00-0.145D+00 0.631D-01-0.644D+00 0.157D+01
 Coeff-En:   0.000D+00 0.000D+00 0.000D+00 0.000D+00 0.100D+01
 Coeff:      0.142D+00-0.135D+00 0.590D-01-0.603D+00 0.154D+01
 Gap=     0.805 Goal=   None    Shift=    0.000
 Gap=     0.805 Goal=   None    Shift=    0.000
 RMSDP=3.75D-03 MaxDP=2.07D-02 DE=-1.03D-02 OVMax= 2.69D-02

 Cycle   6  Pass 1  IDiag  1:
 E= -39.6987551650359     Delta-E=       -0.001588839965 Rises=F Damp=F
 DIIS: error= 1.45D-03 at cycle   6 NSaved=   6.
 NSaved= 6 IEnMin= 6 EnMin= -39.6987551650359     IErMin= 6 ErrMin= 1.45D-03
 ErrMax= 1.45D-03 EMaxC= 1.00D-01 BMatC= 2.05D-04 BMatP= 1.73D-03
 IDIUse=3 WtCom= 9.86D-01 WtEn= 1.45D-02
 Coeff-Com:  0.650D-01-0.910D-01 0.854D-01-0.157D+00-0.123D+00 0.122D+01
 Coeff-En:   0.000D+00 0.000D+00 0.000D+00 0.000D+00 0.000D+00 0.100D+01
 Coeff:      0.640D-01-0.897D-01 0.841D-01-0.155D+00-0.122D+00 0.122D+01
 Gap=     0.807 Goal=   None    Shift=    0.000
 Gap=     0.807 Goal=   None    Shift=    0.000
 RMSDP=1.12D-03 MaxDP=5.04D-03 DE=-1.59D-03 OVMax= 7.32D-03

 Cycle   7  Pass 1  IDiag  1:
 E= -39.6989238529280     Delta-E=       -0.000168687892 Rises=F Damp=F
 DIIS: error= 6.02D-04 at cycle   7 NSaved=   7.
 NSaved= 7 IEnMin= 7 EnMin= -39.6989238529280     IErMin= 7 ErrMin= 6.02D-04
 ErrMax= 6.02D-04 EMaxC= 1.00D-01 BMatC= 1.96D-05 BMatP= 2.05D-04
 IDIUse=3 WtCom= 9.94D-01 WtEn= 6.02D-03
 Coeff-Com: -0.638D-02 0.793D-02-0.248D-01 0.104D+00-0.100D+00-0.462D+00
 Coeff-Com:  0.148D+01
 Coeff-En:   0.000D+00 0.000D+00 0.000D+00 0.000D+00 0.000D+00 0.000D+00
 Coeff-En:   0.100D+01
 Coeff:     -0.634D-02 0.789D-02-0.247D-01 0.104D+00-0.994D-01-0.460D+00
 Coeff:      0.148D+01
 Gap=     0.808 Goal=   None    Shift=    0.000
 Gap=     0.808 Goal=   None    Shift=    0.000
 RMSDP=3.74D-04 MaxDP=1.50D-03 DE=-1.69D-04 OVMax= 2.12D-03

 Cycle   8  Pass 1  IDiag  1:
 E= -39.6989411002148     Delta-E=       -0.000017247287 Rises=F Damp=F
 DIIS: error= 1.04D-04 at cycle   8 NSaved=   8.
 NSaved= 8 IEnMin= 8 EnMin= -39.6989411002148     IErMin= 8 ErrMin= 1.04D-04
 ErrMax= 1.04D-04 EMaxC= 1.00D-01 BMatC= 6.63D-07 BMatP= 1.96D-05
 IDIUse=3 WtCom= 9.99D-01 WtEn= 1.04D-03
 Coeff-Com: -0.433D-03 0.350D-03 0.518D-02-0.247D-01 0.223D-01 0.131D+00
 Coeff-Com: -0.548D+00 0.141D+01
 Coeff-En:   0.000D+00 0.000D+00 0.000D+00 0.000D+00 0.000D+00 0.000D+00
 Coeff-En:   0.000D+00 0.100D+01
 Coeff:     -0.433D-03 0.350D-03 0.518D-02-0.246D-01 0.223D-01 0.131D+00
 Coeff:     -0.548D+00 0.141D+01
 Gap=     0.807 Goal=   None    Shift=    0.000
 Gap=     0.807 Goal=   None    Shift=    0.000
 RMSDP=7.84D-05 MaxDP=3.20D-04 DE=-1.72D-05 OVMax= 4.33D-04

 Cycle   9  Pass 1  IDiag  1:
 E= -39.6989416244437     Delta-E=       -0.000000524229 Rises=F Damp=F
 DIIS: error= 8.59D-06 at cycle   9 NSaved=   9.
 NSaved= 9 IEnMin= 9 EnMin= -39.6989416244437     IErMin= 9 ErrMin= 8.59D-06
 ErrMax= 8.59D-06 EMaxC= 1.00D-01 BMatC= 6.72D-09 BMatP= 6.63D-07
 IDIUse=1 WtCom= 1.00D+00 WtEn= 0.00D+00
 Coeff-Com: -0.962D-03 0.133D-02-0.142D-02 0.482D-02-0.341D-02-0.288D-01
 Coeff-Com:  0.118D+00-0.357D+00 0.127D+01
 Coeff:     -0.962D-03 0.133D-02-0.142D-02 0.482D-02-0.341D-02-0.288D-01
 Coeff:      0.118D+00-0.357D+00 0.127D+01
 Gap=     0.807 Goal=   None    Shift=    0.000
 Gap=     0.807 Goal=   None    Shift=    0.000
 RMSDP=1.02D-05 MaxDP=4.92D-05 DE=-5.24D-07 OVMax= 3.91D-05

 Cycle  10  Pass 1  IDiag  1:
 E= -39.6989416291726     Delta-E=       -0.000000004729 Rises=F Damp=F
 DIIS: error= 1.74D-06 at cycle  10 NSaved=  10.
 NSaved=10 IEnMin=10 EnMin= -39.6989416291726     IErMin=10 ErrMin= 1.74D-06
 ErrMax= 1.74D-06 EMaxC= 1.00D-01 BMatC= 2.92D-10 BMatP= 6.72D-09
 IDIUse=1 WtCom= 1.00D+00 WtEn= 0.00D+00
 Coeff-Com:  0.176D-03-0.239D-03 0.319D-03-0.120D-02 0.848D-03 0.646D-02
 Coeff-Com: -0.258D-01 0.843D-01-0.476D+00 0.141D+01
 Coeff:      0.176D-03-0.239D-03 0.319D-03-0.120D-02 0.848D-03 0.646D-02
 Coeff:     -0.258D-01 0.843D-01-0.476D+00 0.141D+01
 Gap=     0.807 Goal=   None    Shift=    0.000
 Gap=     0.807 Goal=   None    Shift=    0.000
 RMSDP=2.79D-06 MaxDP=1.47D-05 DE=-4.73D-09 OVMax= 9.48D-06

 Cycle  11  Pass 1  IDiag  1:
 E= -39.6989416293821     Delta-E=       -0.000000000209 Rises=F Damp=F
 DIIS: error= 2.63D-07 at cycle  11 NSaved=  11.
 NSaved=11 IEnMin=11 EnMin= -39.6989416293821     IErMin=11 ErrMin= 2.63D-07
 ErrMax= 2.63D-07 EMaxC= 1.00D-01 BMatC= 4.22D-12 BMatP= 2.92D-10
 IDIUse=1 WtCom= 1.00D+00 WtEn= 0.00D+00
 Coeff-Com: -0.105D-04 0.149D-04-0.414D-04 0.171D-03-0.105D-03-0.847D-03
 Coeff-Com:  0.306D-02-0.107D-01 0.802D-01-0.297D+00 0.123D+01
 Coeff:     -0.105D-04 0.149D-04-0.414D-04 0.171D-03-0.105D-03-0.847D-03
 Coeff:      0.306D-02-0.107D-01 0.802D-01-0.297D+00 0.123D+01
 Gap=     0.807 Goal=   None    Shift=    0.000
 Gap=     0.807 Goal=   None    Shift=    0.000
 RMSDP=1.36D-07 MaxDP=4.83D-07 DE=-2.09D-10 OVMax= 6.58D-07

 Cycle  12  Pass 1  IDiag  1:
 E= -39.6989416293846     Delta-E=       -0.000000000002 Rises=F Damp=F
 DIIS: error= 7.63D-08 at cycle  12 NSaved=  12.
 NSaved=12 IEnMin=12 EnMin= -39.6989416293846     IErMin=12 ErrMin= 7.63D-08
 ErrMax= 7.63D-08 EMaxC= 1.00D-01 BMatC= 2.71D-13 BMatP= 4.22D-12
 IDIUse=1 WtCom= 1.00D+00 WtEn= 0.00D+00
 Coeff-Com:  0.205D-05-0.300D-05 0.517D-05-0.165D-04-0.488D-06 0.820D-04
 Coeff-Com: -0.171D-03 0.836D-03-0.105D-01 0.457D-01-0.413D+00 0.138D+01
 Coeff:      0.205D-05-0.300D-05 0.517D-05-0.165D-04-0.488D-06 0.820D-04
 Coeff:     -0.171D-03 0.836D-03-0.105D-01 0.457D-01-0.413D+00 0.138D+01
 Gap=     0.807 Goal=   None    Shift=    0.000
 Gap=     0.807 Goal=   None    Shift=    0.000
 RMSDP=5.41D-08 MaxDP=2.31D-07 DE=-2.49D-12 OVMax= 2.19D-07

 Cycle  13  Pass 1  IDiag  1:
 E= -39.6989416293848     Delta-E=        0.000000000000 Rises=F Damp=F
 DIIS: error= 2.38D-08 at cycle  13 NSaved=  13.
 NSaved=13 IEnMin=13 EnMin= -39.6989416293848     IErMin=13 ErrMin= 2.38D-08
 ErrMax= 2.38D-08 EMaxC= 1.00D-01 BMatC= 1.94D-14 BMatP= 2.71D-13
 IDIUse=1 WtCom= 1.00D+00 WtEn= 0.00D+00
 Coeff-Com:  0.132D-06-0.127D-06-0.298D-06 0.392D-06 0.449D-05 0.887D-06
 Coeff-Com: -0.641D-04 0.945D-04 0.154D-02-0.958D-02 0.147D+00-0.626D+00
 Coeff-Com:  0.149D+01
 Coeff:      0.132D-06-0.127D-06-0.298D-06 0.392D-06 0.449D-05 0.887D-06
 Coeff:     -0.641D-04 0.945D-04 0.154D-02-0.958D-02 0.147D+00-0.626D+00
 Coeff:      0.149D+01
 Gap=     0.807 Goal=   None    Shift=    0.000
 Gap=     0.807 Goal=   None    Shift=    0.000
 RMSDP=1.08D-08 MaxDP=5.13D-08 DE=-2.42D-13 OVMax= 6.91D-08

 Cycle  14  Pass 1  IDiag  1:
 E= -39.6989416293848     Delta-E=        0.000000000000 Rises=F Damp=F
 DIIS: error= 1.03D-08 at cycle  14 NSaved=  14.
 NSaved=14 IEnMin=13 EnMin= -39.6989416293848     IErMin=14 ErrMin= 1.03D-08
 ErrMax= 1.03D-08 EMaxC= 1.00D-01 BMatC= 4.88D-15 BMatP= 1.94D-14
 IDIUse=1 WtCom= 1.00D+00 WtEn= 0.00D+00
 Coeff-Com: -0.505D-06 0.667D-06-0.526D-06 0.229D-05-0.580D-05-0.153D-04
 Coeff-Com:  0.113D-03-0.264D-03-0.262D-03 0.499D-02-0.123D+00 0.594D+00
 Coeff-Com: -0.201D+01 0.254D+01
 Coeff:     -0.505D-06 0.667D-06-0.526D-06 0.229D-05-0.580D-05-0.153D-04
 Coeff:      0.113D-03-0.264D-03-0.262D-03 0.499D-02-0.123D+00 0.594D+00
 Coeff:     -0.201D+01 0.254D+01
 Gap=     0.807 Goal=   None    Shift=    0.000
 Gap=     0.807 Goal=   None    Shift=    0.000
 RMSDP=9.59D-09 MaxDP=4.18D-08 DE= 1.42D-14 OVMax= 5.54D-08

 SCF Done:  E(UHF) =  -39.6989416294     A.U. after   14 cycles
             Convg  =    0.9590D-08             -V/T =  1.9535
 <Sx>= 0.0000 <Sy>= 0.0000 <Sz>= 0.0000 <S**2>= 0.0000 S= 0.0000
 <L.S>= 0.000000000000E+00
 KE= 4.163403196280D+01 PE=-1.254575271202D+02 EE= 2.794135213258D+01
 Annihilation of the first spin contaminant:
 S**2 before annihilation     0.0000,   after     0.0000
 Leave Link  502 at Sun Apr 10 21:50:03 2016, MaxMem=   33554432 cpu:       0.1
 (Enter /software/gaussian-09RevA.02-el6-x86_64/g09/l701.exe)
 Compute integral first derivatives.
 ... and contract with generalized density number  0.
 Leave Link  701 at Sun Apr 10 21:50:03 2016, MaxMem=   33554432 cpu:       0.1
 (Enter /software/gaussian-09RevA.02-el6-x86_64/g09/l702.exe)
 L702 exits ... SP integral derivatives will be done elsewhere.
 Leave Link  702 at Sun Apr 10 21:50:03 2016, MaxMem=   33554432 cpu:       0.1
 (Enter /software/gaussian-09RevA.02-el6-x86_64/g09/l703.exe)
 Compute integral first derivatives, UseDBF=F ICtDFT=           0.
 Integral derivatives from FoFDir, PRISM(SPDF).
 Calling FoFJK, ICntrl=      2127 FMM=F ISym2X=0 I1Cent= 0 IOpClX= 1 NMat=1 NMatS=1 NMatT=0.
 FoFCou: FMM=F IPFlag=           0 FMFlag=      100000 FMFlg1=         800
         NFxFlg=           0 DoJE=F BraDBF=F KetDBF=F FulRan=T
         Omega=  0.000000  0.000000  1.000000  0.000000  0.000000 ICntrl=    2127 IOpCl=  1
         NMat0=    1 NMatS0=    1 NMatT0=    0 NMatD0=    1 NMtDS0=    0 NMtDT0=    0
         I1Cent=           0 NGrid=           0.
 Symmetry not used in FoFCou.
 Leave Link  703 at Sun Apr 10 21:50:03 2016, MaxMem=   33554432 cpu:       0.1
 (Enter /software/gaussian-09RevA.02-el6-x86_64/g09/l716.exe)
 Dipole        = 8.03134516D-04-1.40592827D-05-1.52738013D-02
 ***** Axes restored to original set *****
 -------------------------------------------------------------------
 Center     Atomic                   Forces (Hartrees/Bohr)
 Number     Number              X              Y              Z
 -------------------------------------------------------------------
      1        6           0.000251879    0.000361208   -1.779994075
      2        1          -0.000046037   -0.000006644    1.780117857
      3        1           0.000262429   -0.000338231   -0.000005493
      4        1          -0.000044301   -0.000075901   -0.000137890
      5        1          -0.000423970    0.000059568    0.000019600
 -------------------------------------------------------------------
 Cartesian Forces:  Max     1.780117857 RMS     0.649984568
 -----------------------------------------------------------------------------------------------
                       Internal Coordinate Forces (Hartree/Bohr or radian)
  Cent   Atom   N1       Length/X         N2         Alpha/Y        N3         Beta/Z          J
 -----------------------------------------------------------------------------------------------
      1  C 
      2  H        1   1.780118(     1)
      3  H        1   0.000246(     2)      2  -0.000452(     5)
      4  H        1   0.000132(     3)      3  -0.000630(     6)      2   0.000279(     8)     0
      5  H        1   0.000237(     4)      4  -0.000454(     7)      2   0.000541(     9)     0
 -----------------------------------------------------------------------------------------------
 Internal  Forces:  Max     1.780117857 RMS     0.593372742
 Leave Link  716 at Sun Apr 10 21:50:03 2016, MaxMem=   33554432 cpu:       0.0
 (Enter /software/gaussian-09RevA.02-el6-x86_64/g09/l103.exe)

 GradGradGradGradGradGradGradGradGradGradGradGradGradGradGradGradGradGrad
 Berny optimization.
 Search for a local minimum.
 Step number   2 out of a maximum of   20 on scan point     1 out of    31
 All quantities printed in internal units (Hartrees-Bohrs-Radians)
 Update second derivatives using D2CorN and points    1    2
 DE= -7.49D-04 DEPred=-7.51D-04 R= 9.97D-01
 SS=  1.41D+00  RLast= 9.24D-02 DXNew= 5.0454D-01 2.7718D-01
 Trust test= 9.97D-01 RLast= 9.24D-02 DXMaxT set to 3.00D-01
 The second derivative matrix:
                          B1        B2        B3        B4        A1
           B1           3.62830
           B2          -0.00039   0.37199
           B3          -0.00039  -0.00023   0.37214
           B4          -0.00039  -0.00031  -0.00023   0.37200
           A1          -0.00122  -0.00015   0.00010  -0.00013   0.30384
           A2           0.00122   0.00089   0.00064   0.00086   0.13992
           A3           0.00122   0.00077   0.00052   0.00075   0.03839
           D1           0.00149   0.00037   0.00007   0.00034   0.03042
           D2           0.00149   0.00019  -0.00011   0.00016  -0.13386
                          A2        A3        D1        D2
           A2           0.29809
           A3           0.03845   0.23999
           D1           0.03133  -0.06658   0.16402
           D2          -0.13024   0.00050   0.00328   0.21834
     Eigenvalues ---    0.08005   0.14951   0.16116   0.27759   0.37153
     Eigenvalues ---    0.37230   0.37232   0.555941000.00000
 RFO step:  Lambda=-3.06162400D-06 EMin= 8.00524577D-02
 Quartic linear search produced a step of -0.00427.
 Variable       Old X    -DE/DX   Delta X   Delta X   Delta X     New X
                                 (Linear)    (Quad)   (Total)
    B1        1.13384   1.78012   0.00000   0.00000   0.00000   1.13384
    B2        2.03366   0.00025  -0.00005   0.00071   0.00066   2.03432
    B3        2.03366   0.00013  -0.00005   0.00041   0.00036   2.03402
    B4        2.03366   0.00024  -0.00005   0.00069   0.00064   2.03430
    A1        1.94749  -0.00045  -0.00016   0.00000  -0.00016   1.94733
    A2        1.87384  -0.00063   0.00016  -0.00151  -0.00135   1.87248
    A3        1.87383  -0.00045   0.00016  -0.00142  -0.00126   1.87257
    D1       -2.13936   0.00028   0.00019   0.00124   0.00143  -2.13793
    D2       -2.13957   0.00054   0.00019   0.00135   0.00155  -2.13802
         Item               Value     Threshold  Converged?
 Maximum Force            0.000630     0.000450     NO 
 RMS     Force            0.000405     0.000300     NO 
 Maximum Displacement     0.001546     0.001800     YES
 RMS     Displacement     0.000993     0.001200     YES
 Predicted change in Energy=-1.551565D-06
 GradGradGradGradGradGradGradGradGradGradGradGradGradGradGradGradGradGrad

 Leave Link  103 at Sun Apr 10 21:50:03 2016, MaxMem=   33554432 cpu:       0.0
 (Enter /software/gaussian-09RevA.02-el6-x86_64/g09/l202.exe)
 ---------------------------------------------------------------------------------------------------
                            Z-MATRIX (ANGSTROMS AND DEGREES)
   CD    Cent   Atom    N1       Length/X        N2       Alpha/Y        N3        Beta/Z          J
 ---------------------------------------------------------------------------------------------------
      1      1  C 
      2      2  H        1   0.600000(     1)
      3      3  H        1   1.076518(     2)      2  111.574(     5)
      4      4  H        1   1.076357(     3)      3  107.285(     6)      2 -122.494(     8)      0
      5      5  H        1   1.076505(     4)      4  107.290(     7)      2 -122.500(     9)      0
 ---------------------------------------------------------------------------------------------------
                         Z-Matrix orientation:                         
 ---------------------------------------------------------------------
 Center     Atomic      Atomic             Coordinates (Angstroms)
 Number     Number       Type             X           Y           Z
 ---------------------------------------------------------------------
      1          6           0        0.000000    0.000000    0.000000
      2          1           0        0.000000    0.000000    0.600000
      3          1           0        1.001103    0.000000   -0.395835
      4          1           0       -0.500429   -0.866846   -0.395846
      5          1           0       -0.500465    0.866988   -0.395891
 ---------------------------------------------------------------------
                    Distance matrix (angstroms):
                    1          2          3          4          5
     1  C    0.000000
     2  H    0.600000   0.000000
     3  H    1.076518   1.412053   0.000000
     4  H    1.076357   1.411935   1.733787   0.000000
     5  H    1.076505   1.412066   1.733889   1.733834   0.000000
 Stoichiometry    CH4
 Framework group  C1[X(CH4)]
 Deg. of freedom     9
 Full point group                 C1      NOp   1
 Largest Abelian subgroup         C1      NOp   1
 Largest concise Abelian subgroup C1      NOp   1
                         Standard orientation:                         
 ---------------------------------------------------------------------
 Center     Atomic      Atomic             Coordinates (Angstroms)
 Number     Number       Type             X           Y           Z
 ---------------------------------------------------------------------
      1          6           0        0.000005    0.000025    0.058757
      2          1           0        0.000005    0.000025    0.658757
      3          1           0       -0.726160   -0.689098   -0.337077
      4          1           0       -0.233706    0.973282   -0.337089
      5          1           0        0.959828   -0.284357   -0.337134
 ---------------------------------------------------------------------
 Rotational constants (GHZ):    216.9488449    216.9296423    166.8075008
 Leave Link  202 at Sun Apr 10 21:50:03 2016, MaxMem=   33554432 cpu:       0.0
 (Enter /software/gaussian-09RevA.02-el6-x86_64/g09/l301.exe)
 Standard basis: 6-31G (6D, 7F)
 Ernie: Thresh=  0.10000D-02 Tol=  0.10000D-05 Strict=F.
 There are    17 symmetry adapted basis functions of A   symmetry.
 Integral buffers will be    131072 words long.
 Raffenetti 2 integral format.
 Two-electron integral symmetry is turned on.
    17 basis functions,    38 primitive gaussians,    17 cartesian basis functions
     5 alpha electrons        5 beta electrons
       nuclear repulsion energy        16.1803123692 Hartrees.
 IExCor=    0 DFT=F Ex=HF Corr=None ExCW=0 ScaHFX=  1.000000
 ScaDFX=  1.000000  1.000000  1.000000  1.000000 ScalE2=  1.000000  1.000000
 IRadAn=      0 IRanWt=     -1 IRanGd=            0 ICorTp=0
 NAtoms=    5 NActive=    5 NUniq=    5 SFac= 7.50D-01 NAtFMM=   80 NAOKFM=F Big=F
 Leave Link  301 at Sun Apr 10 21:50:03 2016, MaxMem=   33554432 cpu:       0.1
 (Enter /software/gaussian-09RevA.02-el6-x86_64/g09/l302.exe)
 NPDir=0 NMtPBC=     1 NCelOv=     1 NCel=       1 NClECP=     1 NCelD=      1
         NCelK=      1 NCelE2=     1 NClLst=     1 CellRange=     0.0.
 One-electron integrals computed using PRISM.
 NBasis=    17 RedAO= T  NBF=    17
 NBsUse=    17 1.00D-06 NBFU=    17
 Leave Link  302 at Sun Apr 10 21:50:04 2016, MaxMem=   33554432 cpu:       0.2
 (Enter /software/gaussian-09RevA.02-el6-x86_64/g09/l303.exe)
 DipDrv:  MaxL=1.
 Leave Link  303 at Sun Apr 10 21:50:04 2016, MaxMem=   33554432 cpu:       0.1
 (Enter /software/gaussian-09RevA.02-el6-x86_64/g09/l401.exe)
 Harris functional with IExCor=  205 diagonalized for initial guess.
 ExpMin= 1.61D-01 ExpMax= 3.05D+03 ExpMxC= 4.57D+02 IAcc=1 IRadAn=         1 AccDes= 0.00D+00
 HarFok:  IExCor=  205 AccDes= 0.00D+00 IRadAn=         1 IDoV= 1
 ScaDFX=  1.000000  1.000000  1.000000  1.000000
 FoFCou: FMM=F IPFlag=           0 FMFlag=      100000 FMFlg1=           0
         NFxFlg=           0 DoJE=T BraDBF=F KetDBF=T FulRan=T
         Omega=  0.000000  0.000000  1.000000  0.000000  0.000000 ICntrl=     500 IOpCl=  0
         NMat0=    1 NMatS0=    1 NMatT0=    0 NMatD0=    1 NMtDS0=    0 NMtDT0=    0
         I1Cent=           4 NGrid=           0.
 Petite list used in FoFCou.
 Harris En= -40.0028603412606    
 Mixing orbitals, IMix= 1 IMixAn=  0 NRI=1 NE=    5 Coef=  7.07106781D-01  7.07106781D-01
 Mixing orbitals, IMix= 1 IMixAn=  0 NRI=1 NE=    5 Coef= -7.07106781D-01  7.07106781D-01
 Initial guess orbital symmetries:
 Alpha Orbitals:
       Occupied  (A) (A) (A) (A) (A)
       Virtual   (A) (A) (A) (A) (A) (A) (A) (A) (A) (A) (A) (A)
 Beta  Orbitals:
       Occupied  (A) (A) (A) (A) (A)
       Virtual   (A) (A) (A) (A) (A) (A) (A) (A) (A) (A) (A) (A)
 The electronic state of the initial guess is 1-A.
 Initial guess <Sx>= 0.0000 <Sy>= 0.0000 <Sz>= 0.0000 <S**2>= 1.0000 S= 0.6180
 Leave Link  401 at Sun Apr 10 21:50:04 2016, MaxMem=   33554432 cpu:       0.2
 (Enter /software/gaussian-09RevA.02-el6-x86_64/g09/l502.exe)
 UHF open shell SCF:
 Requested convergence on RMS density matrix=1.00D-08 within 128 cycles.
 Requested convergence on MAX density matrix=1.00D-06.
 Requested convergence on             energy=1.00D-06.
 No special actions if energy rises.
 Using DIIS extrapolation, IDIIS=  1040.
 Integral symmetry usage will be decided dynamically.
 Keep R1 and R2 ints in memory in canonical form, NReq=843342.
 IEnd=       19759 IEndB=       19759 NGot=    33554432 MDV=    33528186
 LenX=    33528186 LenY=    33527304
 Symmetry not used in FoFDir.
 MinBra= 0 MaxBra= 1 Meth= 1.
 IRaf=       0 NMat=   1 IRICut=       1 DoRegI=T DoRafI=F ISym2E= 0 JSym2E=0.

 Cycle   1  Pass 1  IDiag  1:
 E= -39.0771926883854    
 DIIS: error= 1.06D-01 at cycle   1 NSaved=   1.
 NSaved= 1 IEnMin= 1 EnMin= -39.0771926883854     IErMin= 1 ErrMin= 1.06D-01
 ErrMax= 1.06D-01 EMaxC= 1.00D-01 BMatC= 6.20D-01 BMatP= 6.20D-01
 IDIUse=3 WtCom= 0.00D+00 WtEn= 1.00D+00
 Coeff-Com:  0.100D+01
 Coeff-En:   0.100D+01
 Coeff:      0.100D+01
 Gap=     0.374 Goal=   None    Shift=    0.000
 Gap=     0.369 Goal=   None    Shift=    0.000
 GapD=    0.369 DampG=1.000 DampE=0.250 DampFc=0.2500 IDamp=-1.
 Damping current iteration by 2.50D-01
 RMSDP=2.62D-01 MaxDP=2.66D+00              OVMax= 4.85D-01

 Cycle   2  Pass 1  IDiag  1:
 E= -39.1859052304502     Delta-E=       -0.108712542065 Rises=F Damp=T
 DIIS: error= 9.32D-02 at cycle   2 NSaved=   2.
 NSaved= 2 IEnMin= 2 EnMin= -39.1859052304502     IErMin= 2 ErrMin= 9.32D-02
 ErrMax= 9.32D-02 EMaxC= 1.00D-01 BMatC= 3.95D-01 BMatP= 6.20D-01
 IDIUse=3 WtCom= 6.84D-02 WtEn= 9.32D-01
 Coeff-Com: -0.316D+01 0.416D+01
 Coeff-En:   0.000D+00 0.100D+01
 Coeff:     -0.216D+00 0.122D+01
 Gap=     0.636 Goal=   None    Shift=    0.000
 Gap=     0.626 Goal=   None    Shift=    0.000
 RMSDP=2.17D-01 MaxDP=2.19D+00 DE=-1.09D-01 OVMax= 5.99D-02

 Cycle   3  Pass 1  IDiag  1:
 E= -39.6406922210185     Delta-E=       -0.454786990568 Rises=F Damp=F
 DIIS: error= 4.60D-02 at cycle   3 NSaved=   3.
 NSaved= 3 IEnMin= 3 EnMin= -39.6406922210185     IErMin= 3 ErrMin= 4.60D-02
 ErrMax= 4.60D-02 EMaxC= 1.00D-01 BMatC= 5.39D-02 BMatP= 3.95D-01
 IDIUse=3 WtCom= 5.40D-01 WtEn= 4.60D-01
 Coeff-Com:  0.342D+01-0.461D+01 0.219D+01
 Coeff-En:   0.000D+00 0.000D+00 0.100D+01
 Coeff:      0.184D+01-0.249D+01 0.164D+01
 Gap=     0.768 Goal=   None    Shift=    0.000
 Gap=     0.768 Goal=   None    Shift=    0.000
 RMSDP=3.62D-02 MaxDP=2.51D-01 DE=-4.55D-01 OVMax= 1.45D-01

 Cycle   4  Pass 1  IDiag  1:
 E= -39.6880516865961     Delta-E=       -0.047359465578 Rises=F Damp=F
 DIIS: error= 1.92D-02 at cycle   4 NSaved=   4.
 NSaved= 4 IEnMin= 4 EnMin= -39.6880516865961     IErMin= 4 ErrMin= 1.92D-02
 ErrMax= 1.92D-02 EMaxC= 1.00D-01 BMatC= 9.60D-03 BMatP= 5.39D-02
 IDIUse=3 WtCom= 8.08D-01 WtEn= 1.92D-01
 Coeff-Com: -0.575D-01 0.210D-01-0.362D+00 0.140D+01
 Coeff-En:   0.000D+00 0.000D+00 0.000D+00 0.100D+01
 Coeff:     -0.465D-01 0.170D-01-0.293D+00 0.132D+01
 Gap=     0.809 Goal=   None    Shift=    0.000
 Gap=     0.809 Goal=   None    Shift=    0.000
 RMSDP=1.16D-02 MaxDP=6.09D-02 DE=-4.74D-02 OVMax= 7.14D-02

 Cycle   5  Pass 1  IDiag  1:
 E= -39.6973723143463     Delta-E=       -0.009320627750 Rises=F Damp=F
 DIIS: error= 5.85D-03 at cycle   5 NSaved=   5.
 NSaved= 5 IEnMin= 5 EnMin= -39.6973723143463     IErMin= 5 ErrMin= 5.85D-03
 ErrMax= 5.85D-03 EMaxC= 1.00D-01 BMatC= 1.53D-03 BMatP= 9.60D-03
 IDIUse=3 WtCom= 9.41D-01 WtEn= 5.85D-02
 Coeff-Com:  0.160D+00-0.161D+00 0.964D-01-0.713D+00 0.162D+01
 Coeff-En:   0.000D+00 0.000D+00 0.000D+00 0.000D+00 0.100D+01
 Coeff:      0.151D+00-0.151D+00 0.908D-01-0.671D+00 0.158D+01
 Gap=     0.804 Goal=   None    Shift=    0.000
 Gap=     0.804 Goal=   None    Shift=    0.000
 RMSDP=3.55D-03 MaxDP=2.09D-02 DE=-9.32D-03 OVMax= 2.56D-02

 Cycle   6  Pass 1  IDiag  1:
 E= -39.6987923920360     Delta-E=       -0.001420077690 Rises=F Damp=F
 DIIS: error= 1.46D-03 at cycle   6 NSaved=   6.
 NSaved= 6 IEnMin= 6 EnMin= -39.6987923920360     IErMin= 6 ErrMin= 1.46D-03
 ErrMax= 1.46D-03 EMaxC= 1.00D-01 BMatC= 1.70D-04 BMatP= 1.53D-03
 IDIUse=3 WtCom= 9.85D-01 WtEn= 1.46D-02
 Coeff-Com:  0.544D-01-0.780D-01 0.785D-01-0.144D+00-0.110D+00 0.120D+01
 Coeff-En:   0.000D+00 0.000D+00 0.000D+00 0.000D+00 0.000D+00 0.100D+01
 Coeff:      0.536D-01-0.769D-01 0.773D-01-0.141D+00-0.109D+00 0.120D+01
 Gap=     0.808 Goal=   None    Shift=    0.000
 Gap=     0.808 Goal=   None    Shift=    0.000
 RMSDP=9.79D-04 MaxDP=4.68D-03 DE=-1.42D-03 OVMax= 6.26D-03

 Cycle   7  Pass 1  IDiag  1:
 E= -39.6989278858924     Delta-E=       -0.000135493856 Rises=F Damp=F
 DIIS: error= 4.80D-04 at cycle   7 NSaved=   7.
 NSaved= 7 IEnMin= 7 EnMin= -39.6989278858924     IErMin= 7 ErrMin= 4.80D-04
 ErrMax= 4.80D-04 EMaxC= 1.00D-01 BMatC= 1.70D-05 BMatP= 1.70D-04
 IDIUse=3 WtCom= 9.95D-01 WtEn= 4.80D-03
 Coeff-Com: -0.583D-02 0.732D-02-0.244D-01 0.106D+00-0.127D+00-0.406D+00
 Coeff-Com:  0.145D+01
 Coeff-En:   0.000D+00 0.000D+00 0.000D+00 0.000D+00 0.000D+00 0.000D+00
 Coeff-En:   0.100D+01
 Coeff:     -0.580D-02 0.728D-02-0.243D-01 0.106D+00-0.126D+00-0.404D+00
 Coeff:      0.145D+01
 Gap=     0.808 Goal=   None    Shift=    0.000
 Gap=     0.808 Goal=   None    Shift=    0.000
 RMSDP=3.47D-04 MaxDP=1.49D-03 DE=-1.35D-04 OVMax= 2.03D-03

 Cycle   8  Pass 1  IDiag  1:
 E= -39.6989427032276     Delta-E=       -0.000014817335 Rises=F Damp=F
 DIIS: error= 8.31D-05 at cycle   8 NSaved=   8.
 NSaved= 8 IEnMin= 8 EnMin= -39.6989427032276     IErMin= 8 ErrMin= 8.31D-05
 ErrMax= 8.31D-05 EMaxC= 1.00D-01 BMatC= 5.60D-07 BMatP= 1.70D-05
 IDIUse=1 WtCom= 1.00D+00 WtEn= 0.00D+00
 Coeff-Com: -0.575D-03 0.560D-03 0.486D-02-0.246D-01 0.299D-01 0.110D+00
 Coeff-Com: -0.525D+00 0.140D+01
 Coeff:     -0.575D-03 0.560D-03 0.486D-02-0.246D-01 0.299D-01 0.110D+00
 Coeff:     -0.525D+00 0.140D+01
 Gap=     0.808 Goal=   None    Shift=    0.000
 Gap=     0.808 Goal=   None    Shift=    0.000
 RMSDP=7.14D-05 MaxDP=3.10D-04 DE=-1.48D-05 OVMax= 3.98D-04

 Cycle   9  Pass 1  IDiag  1:
 E= -39.6989431439472     Delta-E=       -0.000000440720 Rises=F Damp=F
 DIIS: error= 9.23D-06 at cycle   9 NSaved=   9.
 NSaved= 9 IEnMin= 9 EnMin= -39.6989431439472     IErMin= 9 ErrMin= 9.23D-06
 ErrMax= 9.23D-06 EMaxC= 1.00D-01 BMatC= 6.02D-09 BMatP= 5.60D-07
 IDIUse=1 WtCom= 1.00D+00 WtEn= 0.00D+00
 Coeff-Com: -0.848D-03 0.118D-02-0.137D-02 0.500D-02-0.519D-02-0.254D-01
 Coeff-Com:  0.118D+00-0.367D+00 0.128D+01
 Coeff:     -0.848D-03 0.118D-02-0.137D-02 0.500D-02-0.519D-02-0.254D-01
 Coeff:      0.118D+00-0.367D+00 0.128D+01
 Gap=     0.808 Goal=   None    Shift=    0.000
 Gap=     0.808 Goal=   None    Shift=    0.000
 RMSDP=9.68D-06 MaxDP=4.46D-05 DE=-4.41D-07 OVMax= 3.99D-05

 Cycle  10  Pass 1  IDiag  1:
 E= -39.6989431481724     Delta-E=       -0.000000004225 Rises=F Damp=F
 DIIS: error= 2.30D-06 at cycle  10 NSaved=  10.
 NSaved=10 IEnMin=10 EnMin= -39.6989431481724     IErMin=10 ErrMin= 2.30D-06
 ErrMax= 2.30D-06 EMaxC= 1.00D-01 BMatC= 2.71D-10 BMatP= 6.02D-09
 IDIUse=1 WtCom= 1.00D+00 WtEn= 0.00D+00
 Coeff-Com:  0.169D-03-0.231D-03 0.323D-03-0.128D-02 0.129D-02 0.594D-02
 Coeff-Com: -0.270D-01 0.901D-01-0.487D+00 0.142D+01
 Coeff:      0.169D-03-0.231D-03 0.323D-03-0.128D-02 0.129D-02 0.594D-02
 Coeff:     -0.270D-01 0.901D-01-0.487D+00 0.142D+01
 Gap=     0.808 Goal=   None    Shift=    0.000
 Gap=     0.808 Goal=   None    Shift=    0.000
 RMSDP=2.59D-06 MaxDP=1.28D-05 DE=-4.23D-09 OVMax= 1.05D-05

 Cycle  11  Pass 1  IDiag  1:
 E= -39.6989431483735     Delta-E=       -0.000000000201 Rises=F Damp=F
 DIIS: error= 4.83D-07 at cycle  11 NSaved=  11.
[...]
    B3        2.02505   0.00001   0.00000   0.00001   0.00001   2.02507
    B4        2.02506   0.00001   0.00000   0.00001   0.00001   2.02507
    A1        1.57666  -0.00002   0.00000  -0.00090  -0.00090   1.57576
    A2        2.09440  -0.00001   0.00000   0.00000   0.00000   2.09440
    A3        2.09439  -0.00001   0.00000   0.00000   0.00000   2.09439
    D1       -1.57420   0.00001   0.00000   0.00171   0.00171  -1.57250
    D2       -1.57599   0.00003   0.00000   0.00167   0.00167  -1.57433
         Item               Value     Threshold  Converged?
 Maximum Force            0.000025     0.000450     YES
 RMS     Force            0.000014     0.000300     YES
 Maximum Displacement     0.001709     0.001800     YES
 RMS     Displacement     0.000851     0.001200     YES
 Predicted change in Energy=-4.143536D-08
 Optimization completed.
    -- Stationary point found.
                       ----------------------------
                       !   Optimized Parameters   !
                       ! (Angstroms and Degrees)  !
 ----------------------                            ----------------------
 !      Name          Value   Derivative information (Atomic Units)     !
 ------------------------------------------------------------------------
 !       B1          3.6      -DE/DX =   -0.0003                        !
 !       B2          1.0716   -DE/DX =    0.0                           !
 !       B3          1.0716   -DE/DX =    0.0                           !
 !       B4          1.0716   -DE/DX =    0.0                           !
 !       A1         90.336    -DE/DX =    0.0                           !
 !       A2        120.0005   -DE/DX =    0.0                           !
 !       A3        119.9995   -DE/DX =    0.0                           !
 !       D1        -90.1953   -DE/DX =    0.0                           !
 !       D2        -90.2978   -DE/DX =    0.0                           !
 ------------------------------------------------------------------------
 GradGradGradGradGradGradGradGradGradGradGradGradGradGradGradGradGradGrad

 Summary of Optimized Potential Surface Scan
                           1         2         3         4         5
     Eigenvalues --   -39.69894 -39.94984 -40.08251 -40.14812 -40.17524
           B1           0.60000   0.70000   0.80000   0.90000   1.00000
           B2           1.07652   1.08048   1.08240   1.08313   1.08290
           B3           1.07636   1.08062   1.08244   1.08314   1.08289
           B4           1.07650   1.08048   1.08240   1.08312   1.08289
           A1         111.57377 111.44708 111.16815 110.71518 110.10563
           A2         107.28535 107.41574 107.71015 108.19190 108.83720
           A3         107.29050 107.41735 107.71773 108.19953 108.83854
           D1        -122.49439-122.36645-122.03194-121.50647-120.78475
           D2        -122.49966-122.36217-122.03777-121.51193-120.78991
                           6         7         8         9        10
     Eigenvalues --   -40.18035 -40.17312 -40.15926 -40.14208 -40.12353
           B1           1.10000   1.20000   1.30000   1.40000   1.50000
           B2           1.08202   1.08077   1.07930   1.07780   1.07648
           B3           1.08200   1.08074   1.07926   1.07811   1.07643
           B4           1.08202   1.08078   1.07932   1.07773   1.07648
           A1         109.35825 108.49856 107.49285 106.49309 105.40970
           A2         109.61232 110.47753 111.38514 112.28013 113.21700
           A3         109.60391 110.45733 111.37643 112.30650 113.21188
           D1        -119.88153-118.81660-117.50444-116.18243-114.70989
           D2        -119.88459-118.81574-117.49949-116.20563-114.70926
                          11        12        13        14        15
     Eigenvalues --   -40.10470 -40.08732 -40.07495 -40.06634 -40.06029
           B1           1.60000   1.70000   1.80000   1.90000   2.00000
           B2           1.07503   1.07419   1.07357   1.07308   1.07270
           B3           1.07535   1.07412   1.07349   1.07301   1.07263
           B4           1.07504   1.07422   1.07358   1.07309   1.07270
           A1         104.35852 102.84848 101.25301  99.81578  98.51163
           A2         114.09651 115.23012 116.31491 117.18037 117.87048
           A3         114.09057 115.20910 116.29710 117.16427 117.85831
           D1        -113.27137-111.04819-108.63963-106.40924-104.32922
           D2        -113.26592-111.04582-108.65075-106.42114-104.34432
                          16        17        18        19        20
     Eigenvalues --   -40.05602 -40.05298 -40.05081 -40.04925 -40.04813
           B1           2.10000   2.20000   2.30000   2.40000   2.50000
           B2           1.07239   1.07215   1.07195   1.07181   1.07155
           B3           1.07233   1.07209   1.07190   1.07176   1.07181
           B4           1.07239   1.07214   1.07195   1.07180   1.07159
           A1          97.31955  96.22404  95.21731  94.29906  93.49273
           A2         118.42198 118.85869 119.19924 119.45765 119.67129
           A3         118.41125 118.84956 119.19148 119.45145 119.67446
           D1        -102.38390-100.56236 -98.86510 -97.30280 -95.95309
           D2        -102.40224-100.58479 -98.89072 -97.32997 -95.97772
                          21        22        23        24        25
     Eigenvalues --   -40.04733 -40.04674 -40.04631 -40.04599 -40.04576
           B1           2.60000   2.70000   2.80000   2.90000   3.00000
           B2           1.07163   1.07152   1.07155   1.07154   1.07156
           B3           1.07160   1.07161   1.07155   1.07155   1.07155
           B4           1.07163   1.07153   1.07155   1.07155   1.07156
           A1          92.76893  92.16921  91.72535  91.32821  91.02601
           A2         119.78176 119.88853 119.94031 119.97490 119.98994
           A3         119.77558 119.88888 119.93797 119.97185 119.98670
           D1         -94.65516 -93.61179 -92.80971 -92.07826 -91.50959
           D2         -94.68685 -93.65014 -92.85580 -92.13581 -91.57912
                          26        27        28        29        30
     Eigenvalues --   -40.04558 -40.04544 -40.04534 -40.04526 -40.04519
           B1           3.10000   3.20000   3.30000   3.40000   3.50000
           B2           1.07157   1.07158   1.07159   1.07160   1.07161
           B3           1.07157   1.07158   1.07159   1.07160   1.07161
           B4           1.07157   1.07158   1.07160   1.07161   1.07161
           A1          90.79628  90.62603  90.49960  90.40577  90.33602
           A2         119.99662 119.99915 120.00010 120.00040 120.00045
           A3         119.99386 119.99698 119.99847 119.99918 119.99954
           D1         -91.07303 -90.74792 -90.50651 -90.32772 -90.19530
           D2         -91.15313 -90.83639 -90.60124 -90.42699 -90.29782
                          31
     Eigenvalues --   -40.04514
           B1           3.60000
           B2           1.07161
           B3           1.07161
           B4           1.07161
           A1          90.33602
           A2         120.00045
           A3         119.99954
           D1         -90.19530
           D2         -90.29782
 Largest change from initial coordinates is atom    2       1.771 Angstoms.
 Leave Link  103 at Sun Apr 10 21:51:11 2016, MaxMem=   33554432 cpu:       0.0
 (Enter /software/gaussian-09RevA.02-el6-x86_64/g09/l202.exe)
 ---------------------------------------------------------------------------------------------------
                            Z-MATRIX (ANGSTROMS AND DEGREES)
   CD    Cent   Atom    N1       Length/X        N2       Alpha/Y        N3        Beta/Z          J
 ---------------------------------------------------------------------------------------------------
      1      1  C 
      2      2  H        1   3.600000(     1)
      3      3  H        1   1.071614(     2)      2   90.336(     5)
      4      4  H        1   1.071613(     3)      3  120.000(     6)      2  -90.195(     8)      0
      5      5  H        1   1.071614(     4)      4  120.000(     7)      2  -90.298(     9)      0
 ---------------------------------------------------------------------------------------------------
                         Z-Matrix orientation:                         
 ---------------------------------------------------------------------
 Center     Atomic      Atomic             Coordinates (Angstroms)
 Number     Number       Type             X           Y           Z
 ---------------------------------------------------------------------
      1          6           0        0.000000    0.000000    0.000000
      2          1           0        0.000000    0.000000    3.600000
      3          1           0        1.071595    0.000000   -0.006285
      4          1           0       -0.535823   -0.928034   -0.000021
      5          1           0       -0.535787    0.928044   -0.004813
 ---------------------------------------------------------------------
                    Distance matrix (angstroms):
                    1          2          3          4          5
     1  C    0.000000
     2  H    3.600000   0.000000
     3  H    1.071614   3.762128   0.000000
     4  H    1.071613   3.756129   1.856093   0.000000
     5  H    1.071614   3.760720   1.856056   1.856084   0.000000
 Stoichiometry    CH4
 Framework group  C1[X(CH4)]
 Deg. of freedom     9
 Full point group                 C1      NOp   1
 Largest Abelian subgroup         C1      NOp   1
 Largest concise Abelian subgroup C1      NOp   1
                         Standard orientation:                         
 ---------------------------------------------------------------------
 Center     Atomic      Atomic             Coordinates (Angstroms)
 Number     Number       Type             X           Y           Z
 ---------------------------------------------------------------------
      1          6           0        0.358888    0.000216    0.000035
      2          1           0       -3.241111   -0.001952   -0.000335
      3          1           0        0.365618   -0.587031   -0.896319
      4          1           0        0.358271    1.070126   -0.060343
      5          1           0        0.363894   -0.482441    0.956787
 ---------------------------------------------------------------------
 Rotational constants (GHZ):    145.5602897     36.1465941     36.1464426
 Leave Link  202 at Sun Apr 10 21:51:12 2016, MaxMem=   33554432 cpu:       0.0
 (Enter /software/gaussian-09RevA.02-el6-x86_64/g09/l601.exe)
 Copying SCF densities to generalized density rwf, IOpCl= 1 IROHF=0.

 **********************************************************************

            Population analysis using the SCF density.

 **********************************************************************

 Orbital symmetries:
 Alpha Orbitals:
       Occupied  (A) (A) (A) (A) (A)
       Virtual   (A) (A) (A) (A) (A) (A) (A) (A) (A) (A) (A) (A)
 Beta  Orbitals:
       Occupied  (A) (A) (A) (A) (A)
       Virtual   (A) (A) (A) (A) (A) (A) (A) (A) (A) (A) (A) (A)
 The electronic state is 1-A.
 Alpha  occ. eigenvalues --  -11.22991  -0.95223  -0.58029  -0.58028  -0.38457
 Alpha virt. eigenvalues --    0.09818   0.25565   0.32924   0.32924   0.74520
 Alpha virt. eigenvalues --    0.74916   0.74917   0.93058   1.13223   1.22754
 Alpha virt. eigenvalues --    1.26063   1.26064
  Beta  occ. eigenvalues --  -11.20473  -0.85275  -0.56284  -0.56283  -0.49440
  Beta virt. eigenvalues --    0.15265   0.28000   0.33855   0.33855   0.76184
  Beta virt. eigenvalues --    0.76185   0.85497   0.93432   1.00719   1.25481
  Beta virt. eigenvalues --    1.26622   1.26624
          Condensed to atoms (all electrons):
              1          2          3          4          5
     1  C    5.320075   0.001142   0.379087   0.379088   0.379087
     2  H    0.001142   0.999506   0.000017   0.000018   0.000017
     3  H    0.379087   0.000017   0.523965  -0.028061  -0.028066
     4  H    0.379088   0.000018  -0.028061   0.523955  -0.028062
     5  H    0.379087   0.000017  -0.028066  -0.028062   0.523966
 Mulliken atomic charges:
              1
     1  C   -0.458478
     2  H   -0.000700
     3  H    0.153058
     4  H    0.153063
     5  H    0.153058
 Sum of Mulliken atomic charges =   0.00000
 Mulliken charges with hydrogens summed into heavy atoms:
              1
     1  C    0.000000
 Sum of Mulliken charges with hydrogens summed into heavy atoms =   0.00000
          Atomic-Atomic Spin Densities.
              1          2          3          4          5
     1  C    1.382645   0.000433  -0.016849  -0.016849  -0.016849
     2  H    0.000433  -0.998498  -0.000016  -0.000016  -0.000016
     3  H   -0.016849  -0.000016  -0.098069   0.001731   0.001731
     4  H   -0.016849  -0.000016   0.001731  -0.098069   0.001731
     5  H   -0.016849  -0.000016   0.001731   0.001731  -0.098069
 Mulliken atomic spin densities:
              1
     1  C    1.332530
     2  H   -0.998114
     3  H   -0.111472
     4  H   -0.111473
     5  H   -0.111472
 Sum of Mulliken atomic spin densities =   0.00000
 Electronic spatial extent (au):  <R**2>=             73.9975
 Charge=              0.0000 electrons
 Dipole moment (field-independent basis, Debye):
    X=              0.0216    Y=              0.0000    Z=              0.0000  Tot=              0.0216
 Quadrupole moment (field-independent basis, Debye-Ang):
   XX=            -10.0164   YY=             -8.4511   ZZ=             -8.4513
   XY=             -0.0064   XZ=             -0.0011   YZ=              0.0000
 Traceless Quadrupole moment (field-independent basis, Debye-Ang):
   XX=             -1.0435   YY=              0.5218   ZZ=              0.5217
   XY=             -0.0064   XZ=             -0.0011   YZ=              0.0000
 Octapole moment (field-independent basis, Debye-Ang**2):
  XXX=              3.0743  YYY=              0.7356  ZZZ=              0.1256  XYY=              1.5992
  XXY=             -0.0040  XXZ=             -0.0007  XZZ=              1.6050  YZZ=             -0.7317
  YYZ=             -0.1249  XYZ=              0.0010
 Hexadecapole moment (field-independent basis, Debye-Ang**3):
 XXXX=            -98.1634 YYYY=            -15.4637 ZZZZ=            -15.4644 XXXY=             -0.0150
 XXXZ=             -0.0026 YYYX=              0.2473 YYYZ=              0.0000 ZZZX=              0.0422
 ZZZY=             -0.0001 XXYY=            -19.0662 XXZZ=            -19.0620 YYZZ=             -5.1551
 XXYZ=              0.0008 YYXZ=             -0.0467 ZZXY=             -0.2734
 N-N= 1.104817582917D+01 E-N=-1.703547277536D+02  KE= 5.979280485471D+01
                          Isotropic Fermi Contact Couplings
        Atom                 a.u.       MegaHertz       Gauss      10(-4) cm-1
     1  C(13)              0.24421     137.26966      48.98123      45.78823
     2  H(1)              -0.29754    -664.97860    -237.28089    -221.81298
     3  H(1)              -0.03315     -74.07779     -26.43280     -24.70969
     4  H(1)              -0.03315     -74.08050     -26.43376     -24.71059
     5  H(1)              -0.03315     -74.07810     -26.43291     -24.70980
 --------------------------------------------------------
       Center         ----  Spin Dipole Couplings  ----
                      3XX-RR        3YY-RR        3ZZ-RR
 --------------------------------------------------------
     1   Atom        1.013831     -0.506905     -0.506926
     2   Atom        0.007978     -0.003989     -0.003989
     3   Atom       -0.019156     -0.024980      0.044136
     4   Atom       -0.019177      0.095575     -0.076398
     5   Atom       -0.019162     -0.041844      0.061006
 --------------------------------------------------------
                        XY            XZ            YZ
 --------------------------------------------------------
     1   Atom        0.006244      0.001072      0.000004
     2   Atom        0.000002      0.000000      0.000000
     3   Atom        0.000982      0.001143      0.079339
     4   Atom       -0.002252      0.000187     -0.009736
     5   Atom        0.000981     -0.001380     -0.069601
 --------------------------------------------------------


 ---------------------------------------------------------------------------------
              Anisotropic Spin Dipole Couplings in Principal Axis System
 ---------------------------------------------------------------------------------

       Atom             a.u.   MegaHertz   Gauss  10(-4) cm-1        Axes

              Baa    -0.5069   -68.025   -24.273   -22.691 -0.0041  0.9990  0.0437
     1 C(13)  Bbb    -0.5069   -68.025   -24.273   -22.691 -0.0005 -0.0437  0.9990
              Bcc     1.0139   136.050    48.546    45.381  1.0000  0.0041  0.0007
 
              Baa    -0.0040    -2.128    -0.759    -0.710 -0.0001  0.9858 -0.1680
     2 H(1)   Bbb    -0.0040    -2.128    -0.759    -0.710 -0.0001  0.1680  0.9858
              Bcc     0.0080     4.257     1.519     1.420  1.0000  0.0002  0.0000
 
              Baa    -0.0770   -41.063   -14.652   -13.697 -0.0034  0.8365 -0.5480
     3 H(1)   Bbb    -0.0192   -10.231    -3.651    -3.413  0.9999 -0.0043 -0.0127
              Bcc     0.0961    51.294    18.303    17.110  0.0130  0.5480  0.8364
 
              Baa    -0.0769   -41.056   -14.650   -13.695 -0.0010  0.0563  0.9984
     4 H(1)   Bbb    -0.0192   -10.256    -3.659    -3.421  0.9998  0.0196 -0.0001
              Bcc     0.0962    51.311    18.309    17.116 -0.0196  0.9982 -0.0563
 
              Baa    -0.0770   -41.061   -14.652   -13.697 -0.0044  0.8928  0.4504
     5 H(1)   Bbb    -0.0192   -10.237    -3.653    -3.415  0.9999 -0.0026  0.0149
              Bcc     0.0961    51.298    18.304    17.111 -0.0145 -0.4504  0.8927
 

 ---------------------------------------------------------------------------------

 No NMR shielding tensors so no spin-rotation constants.
 Leave Link  601 at Sun Apr 10 21:51:12 2016, MaxMem=   33554432 cpu:       0.2
 (Enter /software/gaussian-09RevA.02-el6-x86_64/g09/l9999.exe)
 1\1\GINC-MIDWAY219\Scan\UHF\6-31G\C1H4\ROOT\10-Apr-2016\1\\#p uhf/6-31
 g Opt(Z-matrix) Guess=(Always,Mix)\\CH4 C-H Scan\\0,1\C\H,1,B1\H,1,B2,
 2,A1\H,1,B3,3,A2,2,D1,0\H,1,B4,4,A3,2,D2,0\\B1=3.6,s,30,0.1\B2=1.07161
 35\B3=1.07161271\B4=1.07161384\A1=90.33601915\A2=120.00045149\A3=119.9
 9954489\D1=-90.19529689\D2=-90.29781549\\Version=EM64L-G09RevA.02\Stat
 e=1-A\HF=-39.6989431,-39.9498401,-40.0825103,-40.1481157,-40.175236,-4
 0.1803473,-40.1731219,-40.1592555,-40.1420805,-40.1235291,-40.1046994,
 -40.0873181,-40.0749534,-40.0663382,-40.0602904,-40.0560161,-40.052978
 2,-40.050809,-40.0492538,-40.0481342,-40.047325,-40.0467368,-40.046306
 7,-40.0459902,-40.0457552,-40.0455789,-40.0454447,-40.0453408,-40.0452
 587,-40.0451925,-40.0451379\S2=0.,0.,0.,0.,0.,0.,0.,0.,0.,0.,0.,0.1740
 87,0.391931,0.551306,0.668752,0.755767,0.820475,0.868704,0.904697,0.93
 154,0.951654,0.966662,0.977879,0.98632,0.992657,0.997423,1.00101,1.003
 71,1.005739,1.007262,1.008398\S2-1=0.,0.,0.,0.,0.,0.,0.,0.,0.,0.,0.,0.
 ,0.,0.,0.,0.,0.,0.,0.,0.,0.,0.,0.,0.,0.,0.,0.,0.,0.,0.,0.\S2A=0.,0.,0.
 ,0.,0.,0.,0.,0.,0.,0.,0.,0.001299,0.007535,0.016774,0.027297,0.037927,
 0.047896,0.056758,0.064313,0.07049,0.075506,0.079385,0.082363,0.084669
 ,0.086423,0.087757,0.088773,0.089549,0.090143,0.090599,0.090941\RMSD=6
 .873e-10,7.519e-09,2.095e-09,1.735e-09,2.844e-09,4.147e-09,2.691e-09,1
 .398e-09,9.472e-10,6.175e-09,3.937e-09,2.005e-09,4.776e-09,5.926e-09,4
 .860e-09,2.606e-09,1.812e-09,9.746e-09,1.072e-09,1.326e-09,1.317e-09,1
 .346e-09,1.445e-09,1.648e-09,2.415e-09,3.689e-09,4.321e-09,2.457e-09,8
 .129e-09,3.996e-09,5.410e-09\PG=C01 [X(C1H4)]\\@


 REALITY IS FOR PEOPLE WHO CAN'T FACE SCIENCE FICTION.
 Job cpu time:  0 days  0 hours  1 minutes 10.5 seconds.
 File lengths (MBytes):  RWF=     87 Int=      0 D2E=      0 Chk=      2 Scr=      2
 Normal termination of Gaussian 09 at Sun Apr 10 21:51:12 2016.
