 Entering Gaussian System, Link 0=g09
 Input=ch4scan.inp
 Output=ch4scan.log
 Initial command:
 /software/gaussian-09RevA.02-el6-x86_64/g09/l1.exe /home/ilariamerutka/scratch-midway/gaussian-work/Gau-18166.inp -scrdir=/home/ilariamerutka/scratch-midway/gaussian-work/
 Entering Link 1 = /software/gaussian-09RevA.02-el6-x86_64/g09/l1.exe PID=     18167.
  
 Copyright (c) 1988,1990,1992,1993,1995,1998,2003,2009, Gaussian, Inc.
                  All Rights Reserved.
  
 This is part of the Gaussian(R) 09 program.  It is based on
 the Gaussian(R) 03 system (copyright 2003, Gaussian, Inc.),
 the Gaussian(R) 98 system (copyright 1998, Gaussian, Inc.),
 the Gaussian(R) 94 system (copyright 1995, Gaussian, Inc.),
 the Gaussian 92(TM) system (copyright 1992, Gaussian, Inc.),
 the Gaussian 90(TM) system (copyright 1990, Gaussian, Inc.),
 the Gaussian 88(TM) system (copyright 1988, Gaussian, Inc.),
 the Gaussian 86(TM) system (copyright 1986, Carnegie Mellon
 University), and the Gaussian 82(TM) system (copyright 1983,
 Carnegie Mellon University). Gaussian is a federally registered
 trademark of Gaussian, Inc.
  
 This software contains proprietary and confidential information,
 including trade secrets, belonging to Gaussian, Inc.
  
 This software is provided under written license and may be
 used, copied, transmitted, or stored only in accord with that
 written license.
  
 The following legend is applicable only to US Government
 contracts under FAR:
  
                    RESTRICTED RIGHTS LEGEND
  
 Use, reproduction and disclosure by the US Government is
 subject to restrictions as set forth in subparagraphs (a)
 and (c) of the Commercial Computer Software - Restricted
 Rights clause in FAR 52.227-19.
  
 Gaussian, Inc.
 340 Quinnipiac St., Bldg. 40, Wallingford CT 06492
  
  
 ---------------------------------------------------------------
 Warning -- This program may not be used in any manner that
 competes with the business of Gaussian, Inc. or will provide
 assistance to any competitor of Gaussian, Inc.  The licensee
 of this program is prohibited from giving any competitor of
 Gaussian, Inc. access to this program.  By using this program,
 the user acknowledges that Gaussian, Inc. is engaged in the
 business of creating and licensing software in the field of
 computational chemistry and represents and warrants to the
 licensee that it is not a competitor of Gaussian, Inc. and that
 it will not use this program in any manner prohibited above.
 ---------------------------------------------------------------
  

 Cite this work as:
 Gaussian 09, Revision A.02,
 M. J. Frisch, G. W. Trucks, H. B. Schlegel, G. E. Scuseria, 
 M. A. Robb, J. R. Cheeseman, G. Scalmani, V. Barone, B. Mennucci, 
 G. A. Petersson, H. Nakatsuji, M. Caricato, X. Li, H. P. Hratchian, 
 A. F. Izmaylov, J. Bloino, G. Zheng, J. L. Sonnenberg, M. Hada, 
 M. Ehara, K. Toyota, R. Fukuda, J. Hasegawa, M. Ishida, T. Nakajima, 
 Y. Honda, O. Kitao, H. Nakai, T. Vreven, J. A. Montgomery, Jr., 
 J. E. Peralta, F. Ogliaro, M. Bearpark, J. J. Heyd, E. Brothers, 
 K. N. Kudin, V. N. Staroverov, R. Kobayashi, J. Normand, 
 K. Raghavachari, A. Rendell, J. C. Burant, S. S. Iyengar, J. Tomasi, 
 M. Cossi, N. Rega, J. M. Millam, M. Klene, J. E. Knox, J. B. Cross, 
 V. Bakken, C. Adamo, J. Jaramillo, R. Gomperts, R. E. Stratmann, 
 O. Yazyev, A. J. Austin, R. Cammi, C. Pomelli, J. W. Ochterski, 
 R. L. Martin, K. Morokuma, V. G. Zakrzewski, G. A. Voth, 
 P. Salvador, J. J. Dannenberg, S. Dapprich, A. D. Daniels, 
 O. Farkas, J. B. Foresman, J. V. Ortiz, J. Cioslowski, 
 and D. J. Fox, Gaussian, Inc., Wallingford CT, 2009.
 
 ******************************************
 Gaussian 09:  EM64L-G09RevA.02 11-Jun-2009
                10-Apr-2016 
 ******************************************
 %chk=H2O_MC_EXC
 --------------------
 #p CASSCF(6,4)/3-21G
 --------------------
 1/38=1/1;
 2/12=2,17=6,18=5,40=1/2;
 3/5=5,16=1,25=1,32=1,116=101/1,2,3;
 4/17=6,18=4/1,5;
 5/5=2,17=1000000,38=5/10;
 6/7=2,8=2,9=2,10=2,28=1/1;
 99/5=1,9=1/99;
 Leave Link    1 at Sun Apr 10 22:57:02 2016, MaxMem=          0 cpu:       0.0
 (Enter /software/gaussian-09RevA.02-el6-x86_64/g09/l101.exe)
 ---------------
 H20 MCSCF/3-21G
 ---------------
 Symbolic Z-matrix:
 Charge =  0 Multiplicity = 1
 O
 H                    1    ROH
 H                    1    ROH      2    AHOH
       Variables:
  ROH                   0.95                     
  AHOH                104.5                      
 
 NAtoms=      3 NQM=      3 NQMF=      0 NMic=      0 NMicF=      0 NTot=      3.
                    Isotopes and Nuclear Properties:
 (Nuclear quadrupole moments (NQMom) in fm**2, nuclear magnetic moments (NMagM)
  in nuclear magnetons)

  Atom         1           2           3
 IAtWgt=          16           1           1
 AtmWgt=  15.9949146   1.0078250   1.0078250
 NucSpn=           0           1           1
 AtZEff=   0.0000000   0.0000000   0.0000000
 NQMom=    0.0000000   0.0000000   0.0000000
 NMagM=    0.0000000   2.7928460   2.7928460
 Leave Link  101 at Sun Apr 10 22:57:02 2016, MaxMem=   33554432 cpu:       0.2
 (Enter /software/gaussian-09RevA.02-el6-x86_64/g09/l202.exe)
                          Input orientation:                          
 ---------------------------------------------------------------------
 Center     Atomic      Atomic             Coordinates (Angstroms)
 Number     Number       Type             X           Y           Z
 ---------------------------------------------------------------------
      1          8           0        0.000000    0.000000    0.000000
      2          1           0        0.000000    0.000000    0.950000
      3          1           0        0.919740    0.000000   -0.237861
 ---------------------------------------------------------------------
                    Distance matrix (angstroms):
                    1          2          3
     1  O    0.000000
     2  H    0.950000   0.000000
     3  H    0.950000   1.502310   0.000000
 Stoichiometry    H2O
 Framework group  C2V[C2(O),SGV(H2)]
 Deg. of freedom     2
 Full point group                 C2V     NOp   4
 Largest Abelian subgroup         C2V     NOp   4
 Largest concise Abelian subgroup C2      NOp   2
                         Standard orientation:                         
 ---------------------------------------------------------------------
 Center     Atomic      Atomic             Coordinates (Angstroms)
 Number     Number       Type             X           Y           Z
 ---------------------------------------------------------------------
      1          8           0        0.000000    0.000000    0.116321
      2          1           0        0.000000    0.751155   -0.465285
      3          1           0        0.000000   -0.751155   -0.465285
 ---------------------------------------------------------------------
 Rotational constants (GHZ):    834.6205678    444.3680467    289.9781180
 Leave Link  202 at Sun Apr 10 22:57:02 2016, MaxMem=   33554432 cpu:       0.0
 (Enter /software/gaussian-09RevA.02-el6-x86_64/g09/l301.exe)
 Standard basis: 3-21G (6D, 7F)
 Ernie: Thresh=  0.10000D-02 Tol=  0.10000D-05 Strict=F.
 There are     7 symmetry adapted basis functions of A1  symmetry.
 There are     0 symmetry adapted basis functions of A2  symmetry.
 There are     2 symmetry adapted basis functions of B1  symmetry.
 There are     4 symmetry adapted basis functions of B2  symmetry.
 Integral buffers will be    131072 words long.
 Regular integral format.
 Two-electron integral symmetry is turned off.
    13 basis functions,    21 primitive gaussians,    13 cartesian basis functions
     5 alpha electrons        5 beta electrons
       nuclear repulsion energy         9.2647005579 Hartrees.
 IExCor=    0 DFT=F Ex=HF Corr=None ExCW=0 ScaHFX=  1.000000
 ScaDFX=  1.000000  1.000000  1.000000  1.000000 ScalE2=  1.000000  1.000000
 IRadAn=      0 IRanWt=     -1 IRanGd=            0 ICorTp=0
 NAtoms=    3 NActive=    3 NUniq=    2 SFac= 1.69D+00 NAtFMM=   80 NAOKFM=F Big=F
 Leave Link  301 at Sun Apr 10 22:57:02 2016, MaxMem=   33554432 cpu:       0.1
 (Enter /software/gaussian-09RevA.02-el6-x86_64/g09/l302.exe)
 NPDir=0 NMtPBC=     1 NCelOv=     1 NCel=       1 NClECP=     1 NCelD=      1
         NCelK=      1 NCelE2=     1 NClLst=     1 CellRange=     0.0.
 One-electron integrals computed using PRISM.
 The smallest eigenvalue of the overlap matrix is  1.063D-01
 NBasis=    13 RedAO= F  NBF=     7     0     2     4
 NBsUse=    13 1.00D-04 NBFU=     7     0     2     4
 Leave Link  302 at Sun Apr 10 22:57:03 2016, MaxMem=   33554432 cpu:       0.1
 (Enter /software/gaussian-09RevA.02-el6-x86_64/g09/l303.exe)
 DipDrv:  MaxL=1.
 Leave Link  303 at Sun Apr 10 22:57:03 2016, MaxMem=   33554432 cpu:       0.0
 (Enter /software/gaussian-09RevA.02-el6-x86_64/g09/l401.exe)
 Harris functional with IExCor=  205 diagonalized for initial guess.
 ExpMin= 1.83D-01 ExpMax= 3.22D+02 ExpMxC= 3.22D+02 IAcc=1 IRadAn=         1 AccDes= 0.00D+00
 HarFok:  IExCor=  205 AccDes= 0.00D+00 IRadAn=         1 IDoV= 1
 ScaDFX=  1.000000  1.000000  1.000000  1.000000
 FoFCou: FMM=F IPFlag=           0 FMFlag=      100000 FMFlg1=           0
         NFxFlg=           0 DoJE=T BraDBF=F KetDBF=T FulRan=T
         Omega=  0.000000  0.000000  1.000000  0.000000  0.000000 ICntrl=     500 IOpCl=  0
         NMat0=    1 NMatS0=    1 NMatT0=    0 NMatD0=    1 NMtDS0=    0 NMtDT0=    0
         I1Cent=           4 NGrid=           0.
 Petite list used in FoFCou.
 Harris En= -75.6825223123620    
 Initial guess orbital symmetries:
       Occupied  (A1) (A1) (B2) (A1) (B1)
       Virtual   (A1) (B2) (B2) (A1) (B1) (A1) (B2) (A1)
 The electronic state of the initial guess is 1-A1.
 Leave Link  401 at Sun Apr 10 22:57:03 2016, MaxMem=   33554432 cpu:       0.1
 (Enter /software/gaussian-09RevA.02-el6-x86_64/g09/l405.exe)
          Truncation Level=               99999
          a=  3          b=  0          c=  1
          a=N/2 - s   b=2s   c=n- (a+b)
          no. active orbitals (n)  4
          no. active ELECTRONS (N)=  6
                                                  IRREPS TO BE RETAINED = 1 2 3 4
                                                  GROUP IRREP. MULT. TABLE
                                                      1    2    3    4
                                                      2    1    4    3
                                                      3    4    1    2
                                                      4    3    2    1
                                                  IRREP. LABELS FOR ORBITALS
                                                   4 1 3 1
          BOTTOM WEIGHT= 12     TOP WEIGHT= 18
          Configuration         1 Symmetry 1 1110
          Configuration         2 Symmetry 3 11ab
          Configuration         3 Symmetry 1 1101
          Configuration         4 Symmetry 1 1a1b
          Configuration         5 Symmetry 3 1ab1
          Configuration         6 Symmetry 4 a11b
          Configuration         7 Symmetry 1 1011
          Configuration         8 Symmetry 2 a1b1
          Configuration         9 Symmetry 4 ab11
          Configuration        10 Symmetry 1 0111
          NO OF BASIS FUNCTIONS =        10 NO TO BE DELETED =    0
 CI Matrix Elements calculated here
          NO. OF CONFIGURATIONS IN REFERENCE SPACE =    1
                                   SECONDARY SPACE =   10
                                   TERTIARY SPACE =   10
          NO. OF ORBITALS =    4
          NO. OF ELECTRONS =    6
          NO. OF WEIGHTS =    7
          REFERENCE STATE CONFIGURATIONS ARE:     0
          NO. OF CORE ORBITALS =    0
          OPTION:  NON-DIAGONAL HOLE LINE INTERACTIONS INCLUDED
 Len28=        2263 LenMCI=         885.
 Leave Link  405 at Sun Apr 10 22:57:03 2016, MaxMem=   33554432 cpu:       0.3
 (Enter /software/gaussian-09RevA.02-el6-x86_64/g09/l510.exe)
 Enter MCSCF program.
 NO. OF ORBITALS = 13     NO. OF CORE-ORBITALS =  2
 NO. OF VALENCE-ORBITALS =  4      NO. OF VIRTUAL-ORBITALS =  7
 USED ACCURACY IN CHECKING CONVERGENCE =  1.00D-08
  Memory needed for Incore Integrals:                  266330
  Integrals KEPT IN MEMORY
 IBUJAK length=                    2002
 Integral file not found: evaluate integrals 
 Symmetry not used in FoFDir.
 MinBra= 0 MaxBra= 1 Meth= 1.
 IRaf=       0 NMat=   1 IRICut=       1 DoRegI=T DoRafI=F ISym2E= 0 JSym2E=0.
 Defining IBUGAM
 2ND ORD PT ENERGY     CV   -0.009514   CU   -0.004920   UV   -0.084056
 TOTAL                     -75.628189
 ITN=  1 MaxIt= 64 E=    -75.5296994097 DE=-7.55D+01 Acc= 1.00D-08 Lan=  0
 ITN=  2 MaxIt= 64 E=    -75.5896426361 DE=-5.99D-02 Acc= 1.00D-08 Lan=  0
 ITN=  3 MaxIt= 64 E=    -75.5972420267 DE=-7.60D-03 Acc= 1.00D-08 Lan=  0
 ITN=  4 MaxIt= 64 E=    -75.5986942737 DE=-1.45D-03 Acc= 1.00D-08 Lan=  0
 ITN=  5 MaxIt= 64 E=    -75.5992936744 DE=-5.99D-04 Acc= 1.00D-08 Lan=  0
 ITN=  6 MaxIt= 64 E=    -75.5995750528 DE=-2.81D-04 Acc= 1.00D-08 Lan=  0
 ITN=  7 MaxIt= 64 E=    -75.5997109311 DE=-1.36D-04 Acc= 1.00D-08 Lan=  0
 ITN=  8 MaxIt= 64 E=    -75.5997731558 DE=-6.22D-05 Acc= 1.00D-08 Lan=  0
 ITN=  9 MaxIt= 64 E=    -75.5998007110 DE=-2.76D-05 Acc= 1.00D-08 Lan=  0
 ITN= 10 MaxIt= 64 E=    -75.5998127367 DE=-1.20D-05 Acc= 1.00D-08 Lan=  0
 ITN= 11 MaxIt= 64 E=    -75.5998179712 DE=-5.23D-06 Acc= 1.00D-08 Lan=  0
 ITN= 12 MaxIt= 64 E=    -75.5998202595 DE=-2.29D-06 Acc= 1.00D-08 Lan=  0
 ITN= 13 MaxIt= 64 E=    -75.5998212681 DE=-1.01D-06 Acc= 1.00D-08 Lan=  0
 ITN= 14 MaxIt= 64 E=    -75.5998217172 DE=-4.49D-07 Acc= 1.00D-08 Lan=  0
 ITN= 15 MaxIt= 64 E=    -75.5998219194 DE=-2.02D-07 Acc= 1.00D-08 Lan=  0
 ITN= 16 MaxIt= 64 E=    -75.5998220114 DE=-9.20D-08 Acc= 1.00D-08 Lan=  0
 ITN= 17 MaxIt= 64 E=    -75.5998220536 DE=-4.23D-08 Acc= 1.00D-08 Lan=  0
 ITN= 18 MaxIt= 64 E=    -75.5998220732 DE=-1.96D-08 Acc= 1.00D-08 Lan=  0
 ITN= 19 MaxIt= 64 E=    -75.5998220824 DE=-9.15D-09 Acc= 1.00D-08 Lan=  0
 ... Do an extra-iteration for final printing.


                    EIGENVALUES AND  EIGENVECTORS OF CI MATRIX



   ( 1)     EIGENVALUE     -75.5998220867
 (    1) 0.9968877 (    7)-0.0710750 (   10)-0.0295842 (    3)-0.0169731 (    4) 0.0000117 (    9) 0.0000000 (    6) 0.0000000
 (    8) 0.0000000 (    5) 0.0000000 (    2) 0.0000000 (
 Final one electron symbolic density matrix:
                1             2             3             4 
      1  0.199825D+01
      2 -0.493217D-10  0.198990D+01
      3  0.185182D-14 -0.203265D-16  0.199942D+01
      4 -0.470426D-10 -0.306681D-04  0.802191D-16  0.124299D-01
 MCSCF converged.
 Leave Link  510 at Sun Apr 10 22:57:04 2016, MaxMem=   33554432 cpu:       0.3
 (Enter /software/gaussian-09RevA.02-el6-x86_64/g09/l601.exe)
 Copying SCF densities to generalized density rwf, IOpCl= 0 IROHF=3.

 **********************************************************************

            Population analysis using the SCF density.

 **********************************************************************

 Orbital symmetries:
       Occupied  (A1) (A1) (B2) (A1) (B1)
       Virtual   (A1) (B2) (B2) (A1) (B1) (A1) (B2) (A1)
 The electronic state is 1-A1.
 Alpha  occ. eigenvalues --    0.00000   0.00000   0.00000   0.00000   0.00000
 Alpha virt. eigenvalues --    0.00000   0.00000   0.00000   0.00000   0.00000
 Alpha virt. eigenvalues --    0.00000   0.00000   0.00000
          Condensed to atoms (all electrons):
              1          2          3
     1  O    8.186327   0.262688   0.262688
     2  H    0.262688   0.422961  -0.041500
     3  H    0.262688  -0.041500   0.422961
 Mulliken atomic charges:
              1
     1  O   -0.711703
     2  H    0.355851
     3  H    0.355851
 Sum of Mulliken atomic charges =   0.00000
 Mulliken charges with hydrogens summed into heavy atoms:
              1
     1  O    0.000000
 Sum of Mulliken charges with hydrogens summed into heavy atoms =   0.00000
 Electronic spatial extent (au):  <R**2>=             18.4498
 Charge=              0.0000 electrons
 Dipole moment (field-independent basis, Debye):
    X=              0.0000    Y=              0.0000    Z=             -2.4033  Tot=              2.4033
 Quadrupole moment (field-independent basis, Debye-Ang):
   XX=             -6.8003   YY=             -4.1844   ZZ=             -5.8110
   XY=              0.0000   XZ=              0.0000   YZ=              0.0000
 Traceless Quadrupole moment (field-independent basis, Debye-Ang):
   XX=             -1.2017   YY=              1.4142   ZZ=             -0.2125
   XY=              0.0000   XZ=              0.0000   YZ=              0.0000
 Octapole moment (field-independent basis, Debye-Ang**2):
  XXX=              0.0000  YYY=              0.0000  ZZZ=             -1.2227  XYY=              0.0000
  XXY=              0.0000  XXZ=             -0.3163  XZZ=              0.0000  YZZ=              0.0000
  YYZ=             -1.1257  XYZ=              0.0000
 Hexadecapole moment (field-independent basis, Debye-Ang**3):
 XXXX=             -4.1674 YYYY=             -5.4448 ZZZZ=             -5.2667 XXXY=              0.0000
 XXXZ=              0.0000 YYYX=              0.0000 YYYZ=              0.0000 ZZZX=              0.0000
 ZZZY=              0.0000 XXYY=             -1.8157 XXZZ=             -1.6172 YYZZ=             -1.4987
 XXYZ=              0.0000 YYXZ=              0.0000 ZZXY=              0.0000
 N-N= 9.264700557865D+00 E-N=-1.982848138122D+02  KE= 7.553630818476D+01
 No NMR shielding tensors so no spin-rotation constants.
 Leave Link  601 at Sun Apr 10 22:57:04 2016, MaxMem=   33554432 cpu:       0.1
 (Enter /software/gaussian-09RevA.02-el6-x86_64/g09/l9999.exe)
 1\1\GINC-MIDWAY224\SP\CASSCF\3-21G\H2O1\ROOT\10-Apr-2016\0\\#p CASSCF(
 6,4)/3-21G\\H20 MCSCF/3-21G\\0,1\O\H,1,0.95\H,1,0.95,2,104.5\\Version=
 EM64L-G09RevA.02\State=1-A1\HF=-75.5998221\RMSD=0.000e+00\Dipole=0.747
 6171,0.,0.578867\Quadrupole=0.2953239,-0.8934487,0.5981248,0.,-0.58542
 2,0.\PG=C02V [C2(O1),SGV(H2)]\\@


 WE SHOULD BE CAREFUL TO GET OUT OF AN EXPERIENCE ONLY THE WISDOM
 THAT IS IN IT -- AND STOP THERE;
 LEST WE BE LIKE THE CAT THAT SITS DOWN ON A HOT STOVE-LID.
 SHE WILL NEVER SIT DOWN ON A HOT STOVE LID AGAIN;
 BUT ALSO SHE WILL NEVER SIT DOWN ON A COLD ONE ANY MORE.

                                                     -- MARK TWAIN
 Job cpu time:  0 days  0 hours  0 minutes  1.4 seconds.
 File lengths (MBytes):  RWF=     77 Int=      0 D2E=      0 Chk=      2 Scr=      2
 Normal termination of Gaussian 09 at Sun Apr 10 22:57:04 2016.
