 Entering Gaussian System, Link 0=g09
 Input=ch4scan.inp
 Output=ch4scan.log
 Initial command:
 /software/gaussian-09RevA.02-el6-x86_64/g09/l1.exe /home/ilariamerutka/scratch-midway/gaussian-work/Gau-4421.inp -scrdir=/home/ilariamerutka/scratch-midway/gaussian-work/
 Entering Link 1 = /software/gaussian-09RevA.02-el6-x86_64/g09/l1.exe PID=      4422.
  
 Copyright (c) 1988,1990,1992,1993,1995,1998,2003,2009, Gaussian, Inc.
                  All Rights Reserved.
  
 This is part of the Gaussian(R) 09 program.  It is based on
 the Gaussian(R) 03 system (copyright 2003, Gaussian, Inc.),
 the Gaussian(R) 98 system (copyright 1998, Gaussian, Inc.),
 the Gaussian(R) 94 system (copyright 1995, Gaussian, Inc.),
 the Gaussian 92(TM) system (copyright 1992, Gaussian, Inc.),
 the Gaussian 90(TM) system (copyright 1990, Gaussian, Inc.),
 the Gaussian 88(TM) system (copyright 1988, Gaussian, Inc.),
 the Gaussian 86(TM) system (copyright 1986, Carnegie Mellon
 University), and the Gaussian 82(TM) system (copyright 1983,
 Carnegie Mellon University). Gaussian is a federally registered
 trademark of Gaussian, Inc.
  
 This software contains proprietary and confidential information,
 including trade secrets, belonging to Gaussian, Inc.
  
 This software is provided under written license and may be
 used, copied, transmitted, or stored only in accord with that
 written license.
  
 The following legend is applicable only to US Government
 contracts under FAR:
  
                    RESTRICTED RIGHTS LEGEND
  
 Use, reproduction and disclosure by the US Government is
 subject to restrictions as set forth in subparagraphs (a)
 and (c) of the Commercial Computer Software - Restricted
 Rights clause in FAR 52.227-19.
  
 Gaussian, Inc.
 340 Quinnipiac St., Bldg. 40, Wallingford CT 06492
  
  
 ---------------------------------------------------------------
 Warning -- This program may not be used in any manner that
 competes with the business of Gaussian, Inc. or will provide
 assistance to any competitor of Gaussian, Inc.  The licensee
 of this program is prohibited from giving any competitor of
 Gaussian, Inc. access to this program.  By using this program,
 the user acknowledges that Gaussian, Inc. is engaged in the
 business of creating and licensing software in the field of
 computational chemistry and represents and warrants to the
 licensee that it is not a competitor of Gaussian, Inc. and that
 it will not use this program in any manner prohibited above.
 ---------------------------------------------------------------
  

 Cite this work as:
 Gaussian 09, Revision A.02,
 M. J. Frisch, G. W. Trucks, H. B. Schlegel, G. E. Scuseria, 
 M. A. Robb, J. R. Cheeseman, G. Scalmani, V. Barone, B. Mennucci, 
 G. A. Petersson, H. Nakatsuji, M. Caricato, X. Li, H. P. Hratchian, 
 A. F. Izmaylov, J. Bloino, G. Zheng, J. L. Sonnenberg, M. Hada, 
 M. Ehara, K. Toyota, R. Fukuda, J. Hasegawa, M. Ishida, T. Nakajima, 
 Y. Honda, O. Kitao, H. Nakai, T. Vreven, J. A. Montgomery, Jr., 
 J. E. Peralta, F. Ogliaro, M. Bearpark, J. J. Heyd, E. Brothers, 
 K. N. Kudin, V. N. Staroverov, R. Kobayashi, J. Normand, 
 K. Raghavachari, A. Rendell, J. C. Burant, S. S. Iyengar, J. Tomasi, 
 M. Cossi, N. Rega, J. M. Millam, M. Klene, J. E. Knox, J. B. Cross, 
 V. Bakken, C. Adamo, J. Jaramillo, R. Gomperts, R. E. Stratmann, 
 O. Yazyev, A. J. Austin, R. Cammi, C. Pomelli, J. W. Ochterski, 
 R. L. Martin, K. Morokuma, V. G. Zakrzewski, G. A. Voth, 
 P. Salvador, J. J. Dannenberg, S. Dapprich, A. D. Daniels, 
 O. Farkas, J. B. Foresman, J. V. Ortiz, J. Cioslowski, 
 and D. J. Fox, Gaussian, Inc., Wallingford CT, 2009.
 
 ******************************************
 Gaussian 09:  EM64L-G09RevA.02 11-Jun-2009
                10-Apr-2016 
 ******************************************
 %chk=H20_CIS
 ---------------------
 #p CIS/3-21G Opt Freq
 ---------------------
 1/18=20,19=15,38=1/1,3;
 2/9=110,12=2,17=6,18=5,40=1/2;
 3/5=5,11=9,16=1,25=1,30=1,71=1/1,2,8,3;
 4//1;
 5/5=2,38=5/2;
 8/6=1,10=1/1,4;
 9/15=2,42=3/14;
 10/5=4/2;
 6/7=2,8=2,9=2,10=2/1;
 7/12=6,13=5/1,2,3,16;
 1/18=20,19=15/3(2);
 2/9=110/2;
 99//99;
 2/9=110/2;
 3/5=5,11=9,16=1,25=1,30=1,71=1/1,2,8,3;
 4/5=5,16=3/1;
 5/5=2,38=5/2;
 8/6=1,10=1/1,4;
 9/15=2,42=3,49=4/14;
 10/5=4/2;
 7/12=6,13=5/1,2,3,16;
 1/18=20,19=15/3(-8);
 2/9=110/2;
 6/7=2,8=2,9=2,10=2/1;
 99//99;
 Leave Link    1 at Sun Apr 10 22:40:28 2016, MaxMem=          0 cpu:       0.0
 (Enter /software/gaussian-09RevA.02-el6-x86_64/g09/l101.exe)
 ---------------
 H20 MCSCF/3-21G
 ---------------
 Symbolic Z-matrix:
 Charge =  0 Multiplicity = 1
 O
 H                    1    ROH
 H                    1    ROH      2    AHOH
       Variables:
  ROH                   0.95                     
  AHOH                105.                       
 
 NAtoms=      3 NQM=      3 NQMF=      0 NMic=      0 NMicF=      0 NTot=      3.
                    Isotopes and Nuclear Properties:
 (Nuclear quadrupole moments (NQMom) in fm**2, nuclear magnetic moments (NMagM)
  in nuclear magnetons)

  Atom         1           2           3
 IAtWgt=          16           1           1
 AtmWgt=  15.9949146   1.0078250   1.0078250
 NucSpn=           0           1           1
 AtZEff=   0.0000000   0.0000000   0.0000000
 NQMom=    0.0000000   0.0000000   0.0000000
 NMagM=    0.0000000   2.7928460   2.7928460
 Leave Link  101 at Sun Apr 10 22:40:29 2016, MaxMem=   33554432 cpu:       0.2
 (Enter /software/gaussian-09RevA.02-el6-x86_64/g09/l103.exe)

 GradGradGradGradGradGradGradGradGradGradGradGradGradGradGradGradGradGrad
 Berny optimization.
 Initialization pass.
                           ----------------------------
                           !    Initial Parameters    !
                           ! (Angstroms and Degrees)  !
 --------------------------                            --------------------------
 ! Name  Definition              Value          Derivative Info.                !
 --------------------------------------------------------------------------------
 ! R1    R(1,2)                  0.95           estimate D2E/DX2                !
 ! R2    R(1,3)                  0.95           estimate D2E/DX2                !
 ! A1    A(2,1,3)              105.0            estimate D2E/DX2                !
 --------------------------------------------------------------------------------
 Trust Radius=3.00D-01 FncErr=1.00D-07 GrdErr=1.00D-07
 Number of steps in this run=  20 maximum allowed number of steps= 100.
 GradGradGradGradGradGradGradGradGradGradGradGradGradGradGradGradGradGrad

 Leave Link  103 at Sun Apr 10 22:40:29 2016, MaxMem=   33554432 cpu:       0.0
 (Enter /software/gaussian-09RevA.02-el6-x86_64/g09/l202.exe)
                          Input orientation:                          
 ---------------------------------------------------------------------
 Center     Atomic      Atomic             Coordinates (Angstroms)
 Number     Number       Type             X           Y           Z
 ---------------------------------------------------------------------
      1          8           0        0.000000    0.000000    0.000000
      2          1           0        0.000000    0.000000    0.950000
      3          1           0        0.917630    0.000000   -0.245878
 ---------------------------------------------------------------------
                    Distance matrix (angstroms):
                    1          2          3
     1  O    0.000000
     2  H    0.950000   0.000000
     3  H    0.950000   1.507371   0.000000
 Stoichiometry    H2O
 Framework group  C2V[C2(O),SGV(H2)]
 Deg. of freedom     2
 Full point group                 C2V     NOp   4
 Largest Abelian subgroup         C2V     NOp   4
 Largest concise Abelian subgroup C2      NOp   2
                         Standard orientation:                         
 ---------------------------------------------------------------------
 Center     Atomic      Atomic             Coordinates (Angstroms)
 Number     Number       Type             X           Y           Z
 ---------------------------------------------------------------------
      1          8           0        0.000000    0.000000    0.115665
      2          1           0        0.000000    0.753686   -0.462659
      3          1           0        0.000000   -0.753686   -0.462659
 ---------------------------------------------------------------------
 Rotational constants (GHZ):    844.1235066    441.3890322    289.8352574
 Leave Link  202 at Sun Apr 10 22:40:29 2016, MaxMem=   33554432 cpu:       0.0
 (Enter /software/gaussian-09RevA.02-el6-x86_64/g09/l301.exe)
 Standard basis: 3-21G (6D, 7F)
 Ernie: Thresh=  0.10000D-02 Tol=  0.10000D-05 Strict=F.
 There are     7 symmetry adapted basis functions of A1  symmetry.
 There are     0 symmetry adapted basis functions of A2  symmetry.
 There are     2 symmetry adapted basis functions of B1  symmetry.
 There are     4 symmetry adapted basis functions of B2  symmetry.
 Integral buffers will be    131072 words long.
 Raffenetti 1 integral format.
 Two-electron integral symmetry is turned on.
    13 basis functions,    21 primitive gaussians,    13 cartesian basis functions
     5 alpha electrons        5 beta electrons
       nuclear repulsion energy         9.2635178676 Hartrees.
 IExCor=    0 DFT=F Ex=HF Corr=None ExCW=0 ScaHFX=  1.000000
 ScaDFX=  1.000000  1.000000  1.000000  1.000000 ScalE2=  1.000000  1.000000
 IRadAn=      0 IRanWt=     -1 IRanGd=            0 ICorTp=0
 NAtoms=    3 NActive=    3 NUniq=    2 SFac= 1.69D+00 NAtFMM=   80 NAOKFM=F Big=F
 Leave Link  301 at Sun Apr 10 22:40:29 2016, MaxMem=   33554432 cpu:       0.1
 (Enter /software/gaussian-09RevA.02-el6-x86_64/g09/l302.exe)
 NPDir=0 NMtPBC=     1 NCelOv=     1 NCel=       1 NClECP=     1 NCelD=      1
         NCelK=      1 NCelE2=     1 NClLst=     1 CellRange=     0.0.
 One-electron integrals computed using PRISM.
 One-electron integral symmetry used in STVInt
 NBasis=    13 RedAO= T  NBF=     7     0     2     4
 NBsUse=    13 1.00D-06 NBFU=     7     0     2     4
 Leave Link  302 at Sun Apr 10 22:40:29 2016, MaxMem=   33554432 cpu:       0.2
 (Enter /software/gaussian-09RevA.02-el6-x86_64/g09/l308.exe)
 Leave Link  308 at Sun Apr 10 22:40:29 2016, MaxMem=   33554432 cpu:       0.0
 (Enter /software/gaussian-09RevA.02-el6-x86_64/g09/l303.exe)
 DipDrv:  MaxL=1.
 Leave Link  303 at Sun Apr 10 22:40:29 2016, MaxMem=   33554432 cpu:       0.1
 (Enter /software/gaussian-09RevA.02-el6-x86_64/g09/l401.exe)
 Harris functional with IExCor=  205 diagonalized for initial guess.
 ExpMin= 1.83D-01 ExpMax= 3.22D+02 ExpMxC= 3.22D+02 IAcc=1 IRadAn=         1 AccDes= 0.00D+00
 HarFok:  IExCor=  205 AccDes= 0.00D+00 IRadAn=         1 IDoV= 1
 ScaDFX=  1.000000  1.000000  1.000000  1.000000
 FoFCou: FMM=F IPFlag=           0 FMFlag=      100000 FMFlg1=           0
         NFxFlg=           0 DoJE=T BraDBF=F KetDBF=T FulRan=T
         Omega=  0.000000  0.000000  1.000000  0.000000  0.000000 ICntrl=     500 IOpCl=  0
         NMat0=    1 NMatS0=    1 NMatT0=    0 NMatD0=    1 NMtDS0=    0 NMtDT0=    0
         I1Cent=           4 NGrid=           0.
 Petite list used in FoFCou.
 Harris En= -75.6826767197137    
 Initial guess orbital symmetries:
       Occupied  (A1) (A1) (B2) (A1) (B1)
       Virtual   (A1) (B2) (B2) (A1) (B1) (A1) (B2) (A1)
 The electronic state of the initial guess is 1-A1.
 Leave Link  401 at Sun Apr 10 22:40:29 2016, MaxMem=   33554432 cpu:       0.2
 (Enter /software/gaussian-09RevA.02-el6-x86_64/g09/l502.exe)
 Closed shell SCF:
 Requested convergence on RMS density matrix=1.00D-08 within 128 cycles.
 Requested convergence on MAX density matrix=1.00D-06.
 Requested convergence on             energy=1.00D-06.
 No special actions if energy rises.
 Using DIIS extrapolation, IDIIS=  1040.
 Integral symmetry usage will be decided dynamically.
 Keep R1 ints in memory in canonical form, NReq=823981.
 IEnd=       19781 IEndB=       19781 NGot=    33554432 MDV=    33547540
 LenX=    33547540 LenY=    33546658
 Symmetry not used in FoFDir.
 MinBra= 0 MaxBra= 1 Meth= 1.
 IRaf=       0 NMat=   1 IRICut=       1 DoRegI=T DoRafI=F ISym2E= 0 JSym2E=0.

 Cycle   1  Pass 1  IDiag  1:
 E= -75.5088587620737    
 DIIS: error= 9.78D-02 at cycle   1 NSaved=   1.
 NSaved= 1 IEnMin= 1 EnMin= -75.5088587620737     IErMin= 1 ErrMin= 9.78D-02
 ErrMax= 9.78D-02 EMaxC= 1.00D-01 BMatC= 1.27D-01 BMatP= 1.27D-01
 IDIUse=3 WtCom= 2.21D-02 WtEn= 9.78D-01
 Coeff-Com:  0.100D+01
 Coeff-En:   0.100D+01
 Coeff:      0.100D+01
 Gap=     0.630 Goal=   None    Shift=    0.000
 GapD=    0.630 DampG=2.000 DampE=0.500 DampFc=1.0000 IDamp=-1.
 RMSDP=1.89D-02 MaxDP=8.53D-02              OVMax= 1.18D-01

 Cycle   2  Pass 1  IDiag  1:
 E= -75.5676995458635     Delta-E=       -0.058840783790 Rises=F Damp=F
 DIIS: error= 4.71D-02 at cycle   2 NSaved=   2.
 NSaved= 2 IEnMin= 2 EnMin= -75.5676995458635     IErMin= 2 ErrMin= 4.71D-02
 ErrMax= 4.71D-02 EMaxC= 1.00D-01 BMatC= 3.15D-02 BMatP= 1.27D-01
 IDIUse=3 WtCom= 5.29D-01 WtEn= 4.71D-01
 Coeff-Com:  0.312D+00 0.688D+00
 Coeff-En:   0.000D+00 0.100D+01
 Coeff:      0.165D+00 0.835D+00
 Gap=     0.764 Goal=   None    Shift=    0.000
 RMSDP=8.04D-03 MaxDP=4.30D-02 DE=-5.88D-02 OVMax= 3.33D-02

 Cycle   3  Pass 1  IDiag  1:
 E= -75.5838774358868     Delta-E=       -0.016177890023 Rises=F Damp=F
 DIIS: error= 1.22D-02 at cycle   3 NSaved=   3.
 NSaved= 3 IEnMin= 3 EnMin= -75.5838774358868     IErMin= 3 ErrMin= 1.22D-02
 ErrMax= 1.22D-02 EMaxC= 1.00D-01 BMatC= 1.78D-03 BMatP= 3.15D-02
 IDIUse=3 WtCom= 8.78D-01 WtEn= 1.22D-01
 Coeff-Com: -0.287D-01 0.157D+00 0.871D+00
 Coeff-En:   0.000D+00 0.000D+00 0.100D+01
 Coeff:     -0.252D-01 0.138D+00 0.887D+00
 Gap=     0.742 Goal=   None    Shift=    0.000
 RMSDP=1.83D-03 MaxDP=7.41D-03 DE=-1.62D-02 OVMax= 1.08D-02

 Cycle   4  Pass 1  IDiag  1:
 E= -75.5850444842314     Delta-E=       -0.001167048345 Rises=F Damp=F
 DIIS: error= 1.53D-03 at cycle   4 NSaved=   4.
 NSaved= 4 IEnMin= 4 EnMin= -75.5850444842314     IErMin= 4 ErrMin= 1.53D-03
 ErrMax= 1.53D-03 EMaxC= 1.00D-01 BMatC= 2.02D-05 BMatP= 1.78D-03
 IDIUse=3 WtCom= 9.85D-01 WtEn= 1.53D-02
 Coeff-Com:  0.775D-02-0.771D-01-0.256D+00 0.133D+01
 Coeff-En:   0.000D+00 0.000D+00 0.000D+00 0.100D+01
 Coeff:      0.763D-02-0.759D-01-0.252D+00 0.132D+01
 Gap=     0.746 Goal=   None    Shift=    0.000
 RMSDP=2.64D-04 MaxDP=1.60D-03 DE=-1.17D-03 OVMax= 1.15D-03

 Cycle   5  Pass 1  IDiag  1:
 E= -75.5850601027568     Delta-E=       -0.000015618525 Rises=F Damp=F
 DIIS: error= 9.71D-05 at cycle   5 NSaved=   5.
 NSaved= 5 IEnMin= 5 EnMin= -75.5850601027568     IErMin= 5 ErrMin= 9.71D-05
 ErrMax= 9.71D-05 EMaxC= 1.00D-01 BMatC= 7.64D-08 BMatP= 2.02D-05
 IDIUse=1 WtCom= 1.00D+00 WtEn= 0.00D+00
 Coeff-Com: -0.183D-02 0.208D-01 0.644D-01-0.416D+00 0.133D+01
 Coeff:     -0.183D-02 0.208D-01 0.644D-01-0.416D+00 0.133D+01
 Gap=     0.746 Goal=   None    Shift=    0.000
 RMSDP=4.87D-05 MaxDP=2.44D-04 DE=-1.56D-05 OVMax= 3.05D-04

 Cycle   6  Pass 1  IDiag  1:
 E= -75.5850602855737     Delta-E=       -0.000000182817 Rises=F Damp=F
 DIIS: error= 1.84D-05 at cycle   6 NSaved=   6.
 NSaved= 6 IEnMin= 6 EnMin= -75.5850602855737     IErMin= 6 ErrMin= 1.84D-05
 ErrMax= 1.84D-05 EMaxC= 1.00D-01 BMatC= 2.45D-09 BMatP= 7.64D-08
 IDIUse=1 WtCom= 1.00D+00 WtEn= 0.00D+00
 Coeff-Com:  0.948D-03-0.111D-01-0.338D-01 0.228D+00-0.797D+00 0.161D+01
 Coeff:      0.948D-03-0.111D-01-0.338D-01 0.228D+00-0.797D+00 0.161D+01
 Gap=     0.746 Goal=   None    Shift=    0.000
 RMSDP=9.81D-06 MaxDP=4.36D-05 DE=-1.83D-07 OVMax= 6.51D-05

 Cycle   7  Pass 1  IDiag  1:
 E= -75.5850602931544     Delta-E=       -0.000000007581 Rises=F Damp=F
 DIIS: error= 1.74D-06 at cycle   7 NSaved=   7.
 NSaved= 7 IEnMin= 7 EnMin= -75.5850602931544     IErMin= 7 ErrMin= 1.74D-06
 ErrMax= 1.74D-06 EMaxC= 1.00D-01 BMatC= 4.56D-11 BMatP= 2.45D-09
 IDIUse=1 WtCom= 1.00D+00 WtEn= 0.00D+00
 Coeff-Com: -0.624D-04 0.781D-03 0.232D-02-0.179D-01 0.732D-01-0.248D+00
 Coeff-Com:  0.119D+01
 Coeff:     -0.624D-04 0.781D-03 0.232D-02-0.179D-01 0.732D-01-0.248D+00
 Coeff:      0.119D+01
 Gap=     0.746 Goal=   None    Shift=    0.000
 RMSDP=1.15D-06 MaxDP=5.12D-06 DE=-7.58D-09 OVMax= 7.28D-06

 Cycle   8  Pass 1  IDiag  1:
 E= -75.5850602932548     Delta-E=       -0.000000000100 Rises=F Damp=F
 DIIS: error= 2.22D-07 at cycle   8 NSaved=   8.
 NSaved= 8 IEnMin= 8 EnMin= -75.5850602932548     IErMin= 8 ErrMin= 2.22D-07
 ErrMax= 2.22D-07 EMaxC= 1.00D-01 BMatC= 4.77D-13 BMatP= 4.56D-11
 IDIUse=1 WtCom= 1.00D+00 WtEn= 0.00D+00
 Coeff-Com: -0.139D-05 0.858D-06 0.192D-04 0.436D-03-0.386D-02 0.274D-01
 Coeff-Com: -0.256D+00 0.123D+01
 Coeff:     -0.139D-05 0.858D-06 0.192D-04 0.436D-03-0.386D-02 0.274D-01
 Coeff:     -0.256D+00 0.123D+01
 Gap=     0.746 Goal=   None    Shift=    0.000
 RMSDP=1.29D-07 MaxDP=8.42D-07 DE=-1.00D-10 OVMax= 7.18D-07

 Cycle   9  Pass 1  IDiag  1:
 E= -75.5850602932559     Delta-E=       -0.000000000001 Rises=F Damp=F
 DIIS: error= 2.26D-08 at cycle   9 NSaved=   9.
 NSaved= 9 IEnMin= 9 EnMin= -75.5850602932559     IErMin= 9 ErrMin= 2.26D-08
 ErrMax= 2.26D-08 EMaxC= 1.00D-01 BMatC= 5.37D-15 BMatP= 4.77D-13
 IDIUse=1 WtCom= 1.00D+00 WtEn= 0.00D+00
 Coeff-Com: -0.268D-07 0.301D-05 0.696D-05-0.146D-03 0.884D-03-0.506D-02
 Coeff-Com:  0.428D-01-0.249D+00 0.121D+01
 Coeff:     -0.268D-07 0.301D-05 0.696D-05-0.146D-03 0.884D-03-0.506D-02
 Coeff:      0.428D-01-0.249D+00 0.121D+01
 Gap=     0.746 Goal=   None    Shift=    0.000
 RMSDP=1.07D-08 MaxDP=5.05D-08 DE=-1.05D-12 OVMax= 6.66D-08

 Cycle  10  Pass 1  IDiag  1:
 E= -75.5850602932558     Delta-E=        0.000000000000 Rises=F Damp=F
 DIIS: error= 8.07D-10 at cycle  10 NSaved=  10.
 NSaved=10 IEnMin= 9 EnMin= -75.5850602932559     IErMin=10 ErrMin= 8.07D-10
 ErrMax= 8.07D-10 EMaxC= 1.00D-01 BMatC= 1.30D-17 BMatP= 5.37D-15
 IDIUse=1 WtCom= 1.00D+00 WtEn= 0.00D+00
 Coeff-Com: -0.218D-07 0.454D-07 0.320D-06 0.529D-05-0.451D-04 0.309D-03
 Coeff-Com: -0.289D-02 0.206D-01-0.145D+00 0.113D+01
 Coeff:     -0.218D-07 0.454D-07 0.320D-06 0.529D-05-0.451D-04 0.309D-03
 Coeff:     -0.289D-02 0.206D-01-0.145D+00 0.113D+01
 Gap=     0.746 Goal=   None    Shift=    0.000
 RMSDP=3.83D-10 MaxDP=1.25D-09 DE= 2.84D-14 OVMax= 2.22D-09

 SCF Done:  E(RHF) =  -75.5850602933     A.U. after   10 cycles
             Convg  =    0.3826D-09             -V/T =  2.0012
 KE= 7.549553283068D+01 PE=-1.982597685845D+02 EE= 3.791565759297D+01
 Leave Link  502 at Sun Apr 10 22:40:29 2016, MaxMem=   33554432 cpu:       0.1
 (Enter /software/gaussian-09RevA.02-el6-x86_64/g09/l801.exe)
 ExpMin= 1.83D-01 ExpMax= 3.22D+02 ExpMxC= 3.22D+02 IAcc=1 IRadAn=         1 AccDes= 0.00D+00
 HarFok:  IExCor=  205 AccDes= 0.00D+00 IRadAn=         1 IDoV=-2
 ScaDFX=  1.000000  1.000000  1.000000  1.000000
 Largest valence mixing into a core orbital is  1.59D-04
 Largest core mixing into a valence orbital is  2.08D-05
 Range of M.O.s used for correlation:     2    13
 NBasis=    13 NAE=     5 NBE=     5 NFC=     1 NFV=     0
 NROrb=     12 NOA=     4 NOB=     4 NVA=     8 NVB=     8
 Leave Link  801 at Sun Apr 10 22:40:30 2016, MaxMem=   33554432 cpu:       0.1
 (Enter /software/gaussian-09RevA.02-el6-x86_64/g09/l804.exe)
 Closed-shell transformation, MDV=    33554432 ITran=3 ISComp=1.
 Semi-Direct transformation.
 ModeAB=           4 MOrb=             4 LenV=      33446090
 LASXX=         1405 LTotXX=        1405 LenRXX=        3209
 LTotAB=        1804 MaxLAS=        3888 LenRXY=           0
 NonZer=        4614 LenScr=      655360 LnRSAI=        3888
 LnScr1=      655360 LExtra=           0 Total=      1317817
 MaxDsk=          -1 SrtSym=           T ITran=            3
 DoSDTr:  NPSUse=  1
 JobTyp=0 Pass  1:  I=   1 to   4.
 (rs|ai) integrals will be sorted in core.
 Complete sort for first half transformation.
 First half transformation complete.
 Complete sort for second half transformation.
 Second half transformation complete.
 Spin components of T(2) and E(2):
     alpha-alpha T2 =       0.3194902814D-02 E2=     -0.1355722323D-01
     alpha-beta  T2 =       0.2350674029D-01 E2=     -0.9292959024D-01
     beta-beta   T2 =       0.3194902814D-02 E2=     -0.1355722323D-01
 ANorm=    0.1014838187D+01
 E2 =    -0.1200440367D+00 EUMP2 =    -0.75705104329960D+02
 Leave Link  804 at Sun Apr 10 22:40:30 2016, MaxMem=   33554432 cpu:       0.1
 (Enter /software/gaussian-09RevA.02-el6-x86_64/g09/l914.exe)
 RHF ground state
 MDV=    33554432 DFT=F DoStab=F Mixed=F DoRPA=F DoScal=F NonHer=F
 Making orbital integer symmetry assigments:
 Orbital symmetries:
       Occupied  (A1) (A1) (B2) (A1) (B1)
       Virtual   (A1) (B2) (B2) (A1) (B1) (A1) (B2) (A1)
 FoFCou: FMM=F IPFlag=           0 FMFlag=      100000 FMFlg1=           0
         NFxFlg=           0 DoJE=F BraDBF=F KetDBF=F FulRan=T
         Omega=  0.000000  0.000000  1.000000  0.000000  0.000000 ICntrl=       0 IOpCl=  1
         NMat0=    1 NMatS0=    1 NMatT0=    0 NMatD0=    1 NMtDS0=    0 NMtDT0=    0
         I1Cent=           0 NGrid=           0.
 Petite list used in FoFCou.
    12 initial guesses have been made.
 Convergence on wavefunction:    0.000001000000000
 Davidson Disk Diagonalization:  ConvIn= 1.00D-06 SkipCon=T Conv= 1.00D-06.
 Max sub-space:   200 roots to seek:    12 dimension of matrix:     64
 Iteration     1 Dimension    12 NMult    12
 New state      2 was old state      3
 New state      3 was old state      2
 Excitation Energies [eV] at current iteration:
 Root      1 :     9.749852427272533
 Root      2 :    11.684519660068180
 Root      3 :    12.431517058543720
 Root      4 :    14.406162125083530
 Root      5 :    16.350298495854300
 Root      6 :    22.221603273738120
 Root      7 :    33.616369402093370
 Root      8 :    34.427792833518630
 Root      9 :    35.632251328965070
 Root     10 :    36.540039521166900
 Root     11 :    37.186850563647380
 Root     12 :    40.212890952250550
 Iteration     2 Dimension    24 NMult    24
 Root      1 not converged, maximum delta is    0.007051510399350
 Root      2 not converged, maximum delta is    0.015052605829321
 Root      3 not converged, maximum delta is    0.029296053045480
 Excitation Energies [eV] at current iteration:
 Root      1 :     9.741693523536458   Change is   -0.008158903736075
 Root      2 :    11.666150813711640   Change is   -0.018368846356539
 Root      3 :    12.292249020686740   Change is   -0.139268037856976
 Iteration     3 Dimension    26 NMult    26
 Root      1 not converged, maximum delta is    0.000249112619894
 Root      2 has converged.
 Root      3 not converged, maximum delta is    0.000960546258372
 Excitation Energies [eV] at current iteration:
 Root      1 :     9.741683550171814   Change is   -0.000009973364643
 Root      2 :    11.666150813711650   Change is    0.000000000000005
 Root      3 :    12.292039129676330   Change is   -0.000209891010412
 Iteration     4 Dimension    28 NMult    28
 Root      1 not converged, maximum delta is    0.000005315389298
 Root      2 has converged.
 Root      3 not converged, maximum delta is    0.000043001663796
 Excitation Energies [eV] at current iteration:
 Root      1 :     9.741683545278605   Change is   -0.000000004893210
 Root      2 :    11.666150813711620   Change is   -0.000000000000030
 Root      3 :    12.292038578775500   Change is   -0.000000550900832
 Iteration     5 Dimension    29 NMult    29
 Root      1 has converged.
 Root      2 has converged.
 Root      3 not converged, maximum delta is    0.000002500679505
 Excitation Energies [eV] at current iteration:
 Root      1 :     9.741683545278603   Change is   -0.000000000000002
 Root      2 :    11.666150813711630   Change is    0.000000000000017
 Root      3 :    12.292038576752400   Change is   -0.000000002023095
 Iteration     6 Dimension    30 NMult    30
 Root      1 has converged.
 Root      2 has converged.
 Root      3 has converged.
 Excitation Energies [eV] at current iteration:
 Root      1 :     9.741683545278629   Change is    0.000000000000026
 Root      2 :    11.666150813711600   Change is   -0.000000000000029
 Root      3 :    12.292038576748640   Change is   -0.000000000003761
 Convergence achieved on expansion vectors.
 ***********************************************************************
 Excited states from <AA,BB:AA,BB> singles matrix:
 ***********************************************************************
 
 1PDM for each excited state written to RWF  633
 Ground to excited state transition electric dipole moments (Au):
       state          X           Y           Z        Dip. S.      Osc.
         1         0.1720      0.0000      0.0000      0.0296      0.0071
         2         0.0000      0.0000      0.0000      0.0000      0.0000
         3         0.0000      0.0000      0.5731      0.3284      0.0989
 Ground to excited state transition velocity dipole moments (Au):
       state          X           Y           Z        Dip. S.      Osc.
         1        -0.1972      0.0000      0.0000      0.0389      0.0724
         2         0.0000      0.0000      0.0000      0.0000      0.0000
         3         0.0000      0.0000     -0.3335      0.1112      0.1641
 Ground to excited state transition magnetic dipole moments (Au):
       state          X           Y           Z
         1         0.0000      0.2498      0.0000
         2         0.0000      0.0000     -0.4228
         3         0.0000      0.0000      0.0000
 <0|del|b> * <b|rxdel|0> + <0|del|b> * <b|delr+rdel|0>
 Rotatory Strengths (R) in cgs (10**-40 erg-esu-cm/Gauss)
       state          XX          YY          ZZ    R(velocity)
         1         0.0000      0.0000      0.0000      0.0000
 Total R(velocity) tensor for State=          1
                 1             2             3 
      1   0.000000D+00  0.246961D+02  0.000000D+00
      2   0.000000D+00  0.000000D+00  0.000000D+00
      3   0.000000D+00  0.000000D+00  0.000000D+00
 R(velocity) tensor in inp. orien. for State=          1
                 1             2             3 
      1   0.000000D+00  0.000000D+00  0.000000D+00
      2   0.150341D+02  0.000000D+00 -0.195928D+02
      3   0.000000D+00  0.000000D+00  0.000000D+00
         2         0.0000      0.0000      0.0000      0.0000
 Total R(velocity) tensor for State=          2
                 1             2             3 
      1   0.000000D+00  0.000000D+00  0.000000D+00
      2   0.000000D+00  0.000000D+00  0.000000D+00
      3   0.000000D+00  0.000000D+00  0.000000D+00
 R(velocity) tensor in inp. orien. for State=          2
                 1             2             3 
      1   0.000000D+00  0.000000D+00  0.000000D+00
      2   0.000000D+00  0.000000D+00  0.000000D+00
      3   0.000000D+00  0.000000D+00  0.000000D+00
         3         0.0000      0.0000      0.0000      0.0000
 Total R(velocity) tensor for State=          3
                 1             2             3 
      1   0.000000D+00 -0.704923D+01  0.000000D+00
      2  -0.164804D+02  0.000000D+00  0.000000D+00
      3   0.000000D+00  0.000000D+00  0.000000D+00
 R(velocity) tensor in inp. orien. for State=          3
                 1             2             3 
      1   0.000000D+00 -0.100326D+02  0.000000D+00
      2  -0.429130D+01  0.000000D+00  0.559253D+01
      3   0.000000D+00  0.130748D+02  0.000000D+00
 1/2[<0|r|b>*<b|rxdel|0> + (<0|rxdel|b>*<b|r|0>)*]
 Rotatory Strengths (R) in cgs (10**-40 erg-esu-cm/Gauss)
       state          XX          YY          ZZ     R(length)     R(au)
         1         0.0000      0.0000      0.0000      0.0000      0.0000
         2         0.0000      0.0000      0.0000      0.0000      0.0000
         3         0.0000      0.0000      0.0000      0.0000      0.0000
  1/2[<0|del|b>*<b|r|0> + (<0|r|b>*<b|del|0>)*] (Au)
       state          X           Y           Z        Dip. S.   Osc.(frdel)
         1        -0.0339      0.0000      0.0000      0.0339      0.0226
         2         0.0000      0.0000      0.0000      0.0000      0.0000
         3         0.0000      0.0000     -0.1911      0.1911      0.1274
 Ground to excited state transition densities written to RWF  633

 Excitation energies and oscillator strengths:
 
 Excited State   1:      Singlet-B1     9.7417 eV  127.27 nm  f=0.0071  <S**2>=0.000
       5 ->  6         0.70399
 This state for optimization and/or second-order correction.
 Total Energy, E(CIS) =  -75.2270599947    
 Copying the excited state density for this state as the 1-particle RhoCI density.
 
 Excited State   2:      Singlet-A2    11.6662 eV  106.28 nm  f=0.0000  <S**2>=0.000
       5 ->  7         0.70015
 
 Excited State   3:      Singlet-A1    12.2920 eV  100.87 nm  f=0.0989  <S**2>=0.000
       4 ->  6         0.69717
 SavETr:  write IOETrn=   770 NScale= 10 NData=  16 NLR=1 LETran=      64.
 The selected state is a singlet
 Cannot handle 2e integral symmetry, ISym2E=1.
 CISAX:  IP=  1 NPass=   1 NMax=     1.
 CISAX will form     1 AO SS matrices at one time.
 NMat=     1 NSing=     1.
 Symmetry not used in FoFDir.
 MinBra= 0 MaxBra= 1 Meth= 1.
 IRaf=       0 NMat=   1 IRICut=       1 DoRegI=T DoRafI=F ISym2E= 0 JSym2E=0.
 Leave Link  914 at Sun Apr 10 22:40:30 2016, MaxMem=   33554432 cpu:       0.1
 (Enter /software/gaussian-09RevA.02-el6-x86_64/g09/l1002.exe)
 Minotr:  Closed shell wavefunction.
          Computing CIS/TD-HF/TD-KS derivatives.
          Using Z-Vector for PSCF gradient.
          Skipping F1 and S1 gradient terms here.
          IDoAtm=111
          Frozen-core window.
          Direct CPHF calculation.
          Differentiating once with respect to electric field.
                with respect to dipole field.
          Differentiating once with respect to nuclear coordinates.
          Requested convergence is 1.0D-10 RMS, and 1.0D-09 maximum.
          NewPWx=F KeepS1=T KeepF1=T KeepIn=T MapXYZ=F SortEE=F KeepMc=T.
          MDV=      33554398 using IRadAn=       0.
          Keep R1 ints in memory in canonical form, NReq=804676.
 Symmetry not used in FoFDir.
 MinBra= 0 MaxBra= 1 Meth= 1.
 IRaf=       0 NMat=   1 IRICut=       1 DoRegI=T DoRafI=F ISym2E= 0 JSym2E=0.
          Solving linear equations separately, MaxMat=       0.
          There are     1 degrees of freedom in the 1st order CPHF.  IDoFFX=0.
 LinEq1:  Iter=  0 NonCon=     1 RMS=8.10D-02 Max=3.68D-01
 AX will form     1 AO Fock derivatives at one time.
 LinEq1:  Iter=  1 NonCon=     1 RMS=2.01D-02 Max=9.71D-02
 LinEq1:  Iter=  2 NonCon=     1 RMS=1.89D-03 Max=6.53D-03
 LinEq1:  Iter=  3 NonCon=     1 RMS=2.17D-04 Max=8.94D-04
 LinEq1:  Iter=  4 NonCon=     1 RMS=2.03D-05 Max=5.92D-05
 LinEq1:  Iter=  5 NonCon=     1 RMS=1.58D-06 Max=4.55D-06
 LinEq1:  Iter=  6 NonCon=     1 RMS=1.21D-07 Max=3.79D-07
 LinEq1:  Iter=  7 NonCon=     1 RMS=6.68D-09 Max=2.07D-08
 LinEq1:  Iter=  8 NonCon=     1 RMS=3.72D-10 Max=1.41D-09
 LinEq1:  Iter=  9 NonCon=     0 RMS=1.36D-11 Max=4.97D-11
 Linear equations converged to 1.000D-10 1.000D-09 after     9 iterations.
 End of Minotr Frequency-dependent properties file   721 does not exist.
 End of Minotr Frequency-dependent properties file   722 does not exist.
 Leave Link 1002 at Sun Apr 10 22:40:30 2016, MaxMem=   33554432 cpu:       0.1
 (Enter /software/gaussian-09RevA.02-el6-x86_64/g09/l601.exe)
 Copying SCF densities to generalized density rwf, IOpCl= 0 IROHF=0.

 **********************************************************************

            Population analysis using the SCF density.

 **********************************************************************

 Orbital symmetries:
       Occupied  (A1) (A1) (B2) (A1) (B1)
       Virtual   (A1) (B2) (B2) (A1) (B1) (A1) (B2) (A1)
 The electronic state is 1-A1.
 Alpha  occ. eigenvalues --  -20.42615  -1.33257  -0.69046  -0.53763  -0.47966
 Alpha virt. eigenvalues --    0.26609   0.36484   1.19992   1.31536   1.78270
 Alpha virt. eigenvalues --    1.86356   2.01666   3.11677
          Condensed to atoms (all electrons):
              1          2          3
     1  O    8.196741   0.267147   0.267147
     2  H    0.267147   0.409877  -0.042542
     3  H    0.267147  -0.042542   0.409877
 Mulliken atomic charges:
              1
     1  O   -0.731035
     2  H    0.365518
     3  H    0.365518
 Sum of Mulliken atomic charges =   0.00000
 Mulliken charges with hydrogens summed into heavy atoms:
              1
     1  O    0.000000
 Sum of Mulliken charges with hydrogens summed into heavy atoms =   0.00000
 Electronic spatial extent (au):  <R**2>=             18.4115
 Charge=              0.0000 electrons
 Dipole moment (field-independent basis, Debye):
    X=              0.0000    Y=              0.0000    Z=             -2.4264  Tot=              2.4264
 Quadrupole moment (field-independent basis, Debye-Ang):
   XX=             -6.8023   YY=             -4.1176   ZZ=             -5.8169
   XY=              0.0000   XZ=              0.0000   YZ=              0.0000
 Traceless Quadrupole moment (field-independent basis, Debye-Ang):
   XX=             -1.2234   YY=              1.4613   ZZ=             -0.2380
   XY=              0.0000   XZ=              0.0000   YZ=              0.0000
 Octapole moment (field-independent basis, Debye-Ang**2):
  XXX=              0.0000  YYY=              0.0000  ZZZ=             -1.2543  XYY=              0.0000
  XXY=              0.0000  XXZ=             -0.3225  XZZ=              0.0000  YZZ=              0.0000
  YYZ=             -1.1636  XYZ=              0.0000
 Hexadecapole moment (field-independent basis, Debye-Ang**3):
 XXXX=             -4.1629 YYYY=             -5.3364 ZZZZ=             -5.2369 XXXY=              0.0000
 XXXZ=              0.0000 YYYX=              0.0000 YYYZ=              0.0000 ZZZX=              0.0000
 ZZZY=              0.0000 XXYY=             -1.8062 XXZZ=             -1.6112 YYZZ=             -1.4732
 XXYZ=              0.0000 YYXZ=              0.0000 ZZXY=              0.0000
 N-N= 9.263517867595D+00 E-N=-1.982597685861D+02  KE= 7.549553283068D+01
 Symmetry A1   KE= 6.747295668560D+01
 Symmetry A2   KE= 0.000000000000D+00
 Symmetry B1   KE= 4.654817949167D+00
 Symmetry B2   KE= 3.367758195909D+00
 No NMR shielding tensors so no spin-rotation constants.
 Leave Link  601 at Sun Apr 10 22:40:31 2016, MaxMem=   33554432 cpu:       0.1
 (Enter /software/gaussian-09RevA.02-el6-x86_64/g09/l701.exe)
 Compute integral first derivatives.
 ... and contract with generalized density number  6.
 Leave Link  701 at Sun Apr 10 22:40:31 2016, MaxMem=   33554432 cpu:       0.1
 (Enter /software/gaussian-09RevA.02-el6-x86_64/g09/l702.exe)
 L702 exits ... SP integral derivatives will be done elsewhere.
 Leave Link  702 at Sun Apr 10 22:40:31 2016, MaxMem=   33554432 cpu:       0.0
 (Enter /software/gaussian-09RevA.02-el6-x86_64/g09/l703.exe)
 Compute integral first derivatives, UseDBF=F ICtDFT=           0.
 Integral derivatives from FoFDir, PRISM(SPDF).
 Calling FoFJK, ICntrl=      5127 FMM=F ISym2X=1 I1Cent= 0 IOpClX= 0 NMat=1 NMatS=1 NMatT=0.
 FoFCou: FMM=F IPFlag=           0 FMFlag=      100000 FMFlg1=         800
         NFxFlg=           0 DoJE=F BraDBF=F KetDBF=F FulRan=T
         Omega=  0.000000  0.000000  1.000000  0.000000  0.000000 ICntrl=    5127 IOpCl=  0
         NMat0=    1 NMatS0=    1 NMatT0=    0 NMatD0=    1 NMtDS0=    0 NMtDT0=    0
         I1Cent=           0 NGrid=           0.
 Petite list used in FoFCou.
 Leave Link  703 at Sun Apr 10 22:40:31 2016, MaxMem=   33554432 cpu:       0.1
 (Enter /software/gaussian-09RevA.02-el6-x86_64/g09/l716.exe)
 Dipole        = 3.22071277D-17-2.22044605D-16 2.81561111D-02
 ***** Axes restored to original set *****
 -------------------------------------------------------------------
 Center     Atomic                   Forces (Hartrees/Bohr)
 Number     Number              X              Y              Z
 -------------------------------------------------------------------
      1        8          -0.128164535    0.000000000   -0.098344107
      2        1          -0.012042546    0.000000000    0.148379842
      3        1           0.140207081    0.000000000   -0.050035735
 -------------------------------------------------------------------
 Cartesian Forces:  Max     0.148379842 RMS     0.088456463
 Leave Link  716 at Sun Apr 10 22:40:31 2016, MaxMem=   33554432 cpu:       0.0
 (Enter /software/gaussian-09RevA.02-el6-x86_64/g09/l103.exe)

 GradGradGradGradGradGradGradGradGradGradGradGradGradGradGradGradGradGrad
 Berny optimization.
 Internal  Forces:  Max     0.148379842 RMS     0.121792921
 Search for a local minimum.
 Step number   1 out of a maximum of   20
 All quantities printed in internal units (Hartrees-Bohrs-Radians)
 RMS Force = .12179D+00 SwitMx=.10000D-02 MixMth= 1
 Mixed Optimization -- RFO/linear search
 Second derivative matrix not updated -- first step.
 The second derivative matrix:
                          R1        R2        A1
           R1           0.57681
           R2           0.00000   0.57681
           A1           0.00000   0.00000   0.16000
     Eigenvalues ---    0.16000   0.57681   0.57681
 RFO step:  Lambda=-7.00982387D-02 EMin= 1.60000000D-01
 Linear search not attempted -- first point.
 Maximum step size (   0.300) exceeded in Quadratic search.
    -- Step size scaled by   0.888
 Iteration  1 RMS(Cart)=  0.16936033 RMS(Int)=  0.00521660
 Iteration  2 RMS(Cart)=  0.00610174 RMS(Int)=  0.00001547
 Iteration  3 RMS(Cart)=  0.00001115 RMS(Int)=  0.00000000
 Iteration  4 RMS(Cart)=  0.00000000 RMS(Int)=  0.00000000
 ClnCor:  largest displacement from symmetrization is 2.83D-16 for atom     1.
 Variable       Old X    -DE/DX   Delta X   Delta X   Delta X     New X
                                 (Linear)    (Quad)   (Total)
    R1        1.79524   0.14838   0.00000   0.20376   0.20376   1.99900
    R2        1.79524   0.14838   0.00000   0.20376   0.20376   1.99900
    A1        1.83260   0.02162   0.00000   0.08347   0.08347   1.91606
         Item               Value     Threshold  Converged?
 Maximum Force            0.148380     0.000450     NO 
 RMS     Force            0.121793     0.000300     NO 
 Maximum Displacement     0.178959     0.001800     NO 
 RMS     Displacement     0.174383     0.001200     NO 
 Predicted change in Energy=-3.776657D-02
 GradGradGradGradGradGradGradGradGradGradGradGradGradGradGradGradGradGrad

 Leave Link  103 at Sun Apr 10 22:40:31 2016, MaxMem=   33554432 cpu:       0.0
 (Enter /software/gaussian-09RevA.02-el6-x86_64/g09/l202.exe)
                          Input orientation:                          
 ---------------------------------------------------------------------
 Center     Atomic      Atomic             Coordinates (Angstroms)
 Number     Number       Type             X           Y           Z
 ---------------------------------------------------------------------
      1          8           0       -0.015901    0.000000   -0.012202
      2          1           0       -0.060034    0.000000    1.044701
      3          1           0        0.993565    0.000000   -0.328377
 ---------------------------------------------------------------------
                    Distance matrix (angstroms):
                    1          2          3
     1  O    0.000000
     2  H    1.057823   0.000000
     3  H    1.057823   1.730727   0.000000
 Stoichiometry    H2O
 Framework group  C2V[C2(O),SGV(H2)]
 Deg. of freedom     2
 Full point group                 C2V     NOp   4
 Largest Abelian subgroup         C2V     NOp   4
 Largest concise Abelian subgroup C2      NOp   2
                         Standard orientation:                         
 ---------------------------------------------------------------------
 Center     Atomic      Atomic             Coordinates (Angstroms)
 Number     Number       Type             X           Y           Z
 ---------------------------------------------------------------------
      1          8           0        0.000000    0.000000    0.121678
      2          1           0        0.000000    0.865364   -0.486711
      3          1           0        0.000000   -0.865364   -0.486711
 ---------------------------------------------------------------------
 Rotational constants (GHZ):    762.7564769    334.8149872    232.6794276
 Leave Link  202 at Sun Apr 10 22:40:31 2016, MaxMem=   33554432 cpu:       0.0
 (Enter /software/gaussian-09RevA.02-el6-x86_64/g09/l301.exe)
 Standard basis: 3-21G (6D, 7F)
 Ernie: Thresh=  0.10000D-02 Tol=  0.10000D-05 Strict=F.
 There are     7 symmetry adapted basis functions of A1  symmetry.
 There are     0 symmetry adapted basis functions of A2  symmetry.
 There are     2 symmetry adapted basis functions of B1  symmetry.
 There are     4 symmetry adapted basis functions of B2  symmetry.
 Integral buffers will be    131072 words long.
 Raffenetti 1 integral format.
 Two-electron integral symmetry is turned on.
    13 basis functions,    21 primitive gaussians,    13 cartesian basis functions
     5 alpha electrons        5 beta electrons
       nuclear repulsion energy         8.3097706627 Hartrees.
 IExCor=    0 DFT=F Ex=HF Corr=None ExCW=0 ScaHFX=  1.000000
 ScaDFX=  1.000000  1.000000  1.000000  1.000000 ScalE2=  1.000000  1.000000
 IRadAn=      0 IRanWt=     -1 IRanGd=            0 ICorTp=0
 NAtoms=    3 NActive=    3 NUniq=    2 SFac= 1.69D+00 NAtFMM=   80 NAOKFM=F Big=F
 Leave Link  301 at Sun Apr 10 22:40:31 2016, MaxMem=   33554432 cpu:       0.0
 (Enter /software/gaussian-09RevA.02-el6-x86_64/g09/l302.exe)
 NPDir=0 NMtPBC=     1 NCelOv=     1 NCel=       1 NClECP=     1 NCelD=      1
         NCelK=      1 NCelE2=     1 NClLst=     1 CellRange=     0.0.
 One-electron integrals computed using PRISM.
 One-electron integral symmetry used in STVInt
 NBasis=    13 RedAO= T  NBF=     7     0     2     4
 NBsUse=    13 1.00D-06 NBFU=     7     0     2     4
 Leave Link  302 at Sun Apr 10 22:40:31 2016, MaxMem=   33554432 cpu:       0.1
 (Enter /software/gaussian-09RevA.02-el6-x86_64/g09/l308.exe)
 Leave Link  308 at Sun Apr 10 22:40:31 2016, MaxMem=   33554432 cpu:       0.0
 (Enter /software/gaussian-09RevA.02-el6-x86_64/g09/l303.exe)
 DipDrv:  MaxL=1.
 Leave Link  303 at Sun Apr 10 22:40:31 2016, MaxMem=   33554432 cpu:       0.0
 (Enter /software/gaussian-09RevA.02-el6-x86_64/g09/l401.exe)
 Initial guess read from the read-write file.
 B after Tr=     0.000000    0.000000    0.000000
         Rot=    1.000000    0.000000    0.000000    0.000000 Ang=   0.00 deg.
 Guess basis will be translated and rotated to current coordinates.
 Initial guess orbital symmetries:
       Occupied  (A1) (A1) (B2) (A1) (B1)
       Virtual   (A1) (B2) (B2) (A1) (B1) (A1) (B2) (A1)
 The electronic state of the initial guess is 1-A1.
 Generating alternative initial guess.
 Harris functional with IExCor=  205 diagonalized for initial guess.
 ExpMin= 1.83D-01 ExpMax= 3.22D+02 ExpMxC= 3.22D+02 IAcc=1 IRadAn=         1 AccDes= 0.00D+00
 HarFok:  IExCor=  205 AccDes= 0.00D+00 IRadAn=         1 IDoV= 1
 ScaDFX=  1.000000  1.000000  1.000000  1.000000
 FoFCou: FMM=F IPFlag=           0 FMFlag=      100000 FMFlg1=           0
         NFxFlg=           0 DoJE=T BraDBF=F KetDBF=T FulRan=T
         Omega=  0.000000  0.000000  1.000000  0.000000  0.000000 ICntrl=     500 IOpCl=  0
         NMat0=    1 NMatS0=    1 NMatT0=    0 NMatD0=    1 NMtDS0=    0 NMtDT0=    0
         I1Cent=           4 NGrid=           0.
 Petite list used in FoFCou.
 Harris En= -75.6751075048082    
 Leave Link  401 at Sun Apr 10 22:40:31 2016, MaxMem=   33554432 cpu:       0.2
 (Enter /software/gaussian-09RevA.02-el6-x86_64/g09/l502.exe)
 Closed shell SCF:
 Requested convergence on RMS density matrix=1.00D-08 within 128 cycles.
 Requested convergence on MAX density matrix=1.00D-06.
 Requested convergence on             energy=1.00D-06.
 No special actions if energy rises.
 Using DIIS extrapolation, IDIIS=  1040.
 Integral symmetry usage will be decided dynamically.
 Keep R1 ints in memory in canonical form, NReq=823981.
 IEnd=       19781 IEndB=       19781 NGot=    33554432 MDV=    33547540
 LenX=    33547540 LenY=    33546658
 Symmetry not used in FoFDir.
 MinBra= 0 MaxBra= 1 Meth= 1.
 IRaf=       0 NMat=   1 IRICut=       1 DoRegI=T DoRafI=F ISym2E= 0 JSym2E=0.

 Cycle   1  Pass 1  IDiag  1:
 E= -75.5647831855624    
 DIIS: error= 2.38D-02 at cycle   1 NSaved=   1.
 NSaved= 1 IEnMin= 1 EnMin= -75.5647831855624     IErMin= 1 ErrMin= 2.38D-02
 ErrMax= 2.38D-02 EMaxC= 1.00D-01 BMatC= 7.81D-03 BMatP= 7.81D-03
 IDIUse=3 WtCom= 7.62D-01 WtEn= 2.38D-01
 Coeff-Com:  0.100D+01
 Coeff-En:   0.100D+01
 Coeff:      0.100D+01
 Recover alternate guess density for next cycle.
 RMSDP=1.18D-02 MaxDP=4.67D-02              OVMax= 0.00D+00

 Cycle   2  Pass 1  IDiag  1:
 E= -75.4991716576973     Delta-E=        0.065611527865 Rises=F Damp=F
 Switch densities from cycles 1 and 2 for lowest energy.
 DIIS: error= 9.40D-02 at cycle   2 NSaved=   2.
 NSaved= 2 IEnMin= 1 EnMin= -75.5647831855624     IErMin= 1 ErrMin= 2.38D-02
 ErrMax= 9.40D-02 EMaxC= 1.00D+00 BMatC= 1.16D-01 BMatP= 7.81D-03
 IDIUse=1 WtCom= 1.00D+00 WtEn= 0.00D+00
 Coeff-Com:  0.106D+01-0.626D-01
 Coeff:      0.106D+01-0.626D-01
 Gap=     0.704 Goal=   None    Shift=    0.000
 RMSDP=5.29D-03 MaxDP=1.53D-02 DE= 6.56D-02 OVMax= 2.56D-02

 Cycle   3  Pass 1  IDiag  1:
 E= -75.5718963939280     Delta-E=       -0.072724736231 Rises=F Damp=F
 DIIS: error= 6.22D-03 at cycle   3 NSaved=   3.
 NSaved= 3 IEnMin= 3 EnMin= -75.5718963939280     IErMin= 3 ErrMin= 6.22D-03
 ErrMax= 6.22D-03 EMaxC= 1.00D+00 BMatC= 5.02D-04 BMatP= 7.81D-03
 IDIUse=1 WtCom= 1.00D+00 WtEn= 0.00D+00
 Coeff-Com: -0.134D+00 0.549D-01 0.108D+01
 Coeff:     -0.134D+00 0.549D-01 0.108D+01
 Gap=     0.699 Goal=   None    Shift=    0.000
 RMSDP=1.42D-03 MaxDP=5.70D-03 DE=-7.27D-02 OVMax= 6.86D-03

 Cycle   4  Pass 1  IDiag  1:
 E= -75.5723864191815     Delta-E=       -0.000490025253 Rises=F Damp=F
 DIIS: error= 1.34D-03 at cycle   4 NSaved=   4.
 NSaved= 4 IEnMin= 4 EnMin= -75.5723864191815     IErMin= 4 ErrMin= 1.34D-03
 ErrMax= 1.34D-03 EMaxC= 1.00D+00 BMatC= 1.41D-05 BMatP= 5.02D-04
 IDIUse=1 WtCom= 1.00D+00 WtEn= 0.00D+00
 Coeff-Com: -0.130D-02-0.677D-02-0.124D+00 0.113D+01
 Coeff:     -0.130D-02-0.677D-02-0.124D+00 0.113D+01
 Gap=     0.701 Goal=   None    Shift=    0.000
 RMSDP=5.42D-04 MaxDP=1.93D-03 DE=-4.90D-04 OVMax= 4.18D-03

 Cycle   5  Pass 1  IDiag  1:
 E= -75.5724239503503     Delta-E=       -0.000037531169 Rises=F Damp=F
 DIIS: error= 4.53D-04 at cycle   5 NSaved=   5.
 NSaved= 5 IEnMin= 5 EnMin= -75.5724239503503     IErMin= 5 ErrMin= 4.53D-04
 ErrMax= 4.53D-04 EMaxC= 1.00D+00 BMatC= 2.24D-06 BMatP= 1.41D-05
 IDIUse=1 WtCom= 1.00D+00 WtEn= 0.00D+00
 Coeff-Com:  0.103D-01 0.109D-02-0.372D-01-0.365D+00 0.139D+01
 Coeff:      0.103D-01 0.109D-02-0.372D-01-0.365D+00 0.139D+01
 Gap=     0.702 Goal=   None    Shift=    0.000
 RMSDP=2.47D-04 MaxDP=9.11D-04 DE=-3.75D-05 OVMax= 1.83D-03

 Cycle   6  Pass 1  IDiag  1:
 E= -75.5724293085301     Delta-E=       -0.000005358180 Rises=F Damp=F
 DIIS: error= 9.91D-05 at cycle   6 NSaved=   6.
 NSaved= 6 IEnMin= 6 EnMin= -75.5724293085301     IErMin= 6 ErrMin= 9.91D-05
 ErrMax= 9.91D-05 EMaxC= 1.00D+00 BMatC= 7.25D-08 BMatP= 2.24D-06
 IDIUse=1 WtCom= 1.00D+00 WtEn= 0.00D+00
 Coeff-Com: -0.330D-02-0.170D-03 0.183D-01 0.726D-01-0.452D+00 0.136D+01
 Coeff:     -0.330D-02-0.170D-03 0.183D-01 0.726D-01-0.452D+00 0.136D+01
 Gap=     0.702 Goal=   None    Shift=    0.000
 RMSDP=4.96D-05 MaxDP=2.16D-04 DE=-5.36D-06 OVMax= 3.56D-04

 Cycle   7  Pass 1  IDiag  1:
 E= -75.5724295505362     Delta-E=       -0.000000242006 Rises=F Damp=F
 DIIS: error= 2.23D-05 at cycle   7 NSaved=   7.
 NSaved= 7 IEnMin= 7 EnMin= -75.5724295505362     IErMin= 7 ErrMin= 2.23D-05
 ErrMax= 2.23D-05 EMaxC= 1.00D+00 BMatC= 3.90D-09 BMatP= 7.25D-08
 IDIUse=1 WtCom= 1.00D+00 WtEn= 0.00D+00
 Coeff-Com:  0.433D-03 0.333D-04-0.347D-02-0.578D-02 0.750D-01-0.479D+00
 Coeff-Com:  0.141D+01
 Coeff:      0.433D-03 0.333D-04-0.347D-02-0.578D-02 0.750D-01-0.479D+00
 Coeff:      0.141D+01
 Gap=     0.702 Goal=   None    Shift=    0.000
 RMSDP=1.21D-05 MaxDP=4.84D-05 DE=-2.42D-07 OVMax= 7.95D-05

 Cycle   8  Pass 1  IDiag  1:
 E= -75.5724295629489     Delta-E=       -0.000000012413 Rises=F Damp=F
 DIIS: error= 1.47D-06 at cycle   8 NSaved=   8.
 NSaved= 8 IEnMin= 8 EnMin= -75.5724295629489     IErMin= 8 ErrMin= 1.47D-06
 ErrMax= 1.47D-06 EMaxC= 1.00D+00 BMatC= 2.40D-11 BMatP= 3.90D-09
 IDIUse=1 WtCom= 1.00D+00 WtEn= 0.00D+00
 Coeff-Com: -0.745D-04-0.812D-05 0.708D-03 0.958D-03-0.171D-01 0.121D+00
 Coeff-Com: -0.397D+00 0.129D+01
 Coeff:     -0.745D-04-0.812D-05 0.708D-03 0.958D-03-0.171D-01 0.121D+00
 Coeff:     -0.397D+00 0.129D+01
 Gap=     0.702 Goal=   None    Shift=    0.000
 RMSDP=8.72D-07 MaxDP=3.26D-06 DE=-1.24D-08 OVMax= 5.93D-06

 Cycle   9  Pass 1  IDiag  1:
 E= -75.5724295630027     Delta-E=       -0.000000000054 Rises=F Damp=F
 DIIS: error= 1.01D-07 at cycle   9 NSaved=   9.
 NSaved= 9 IEnMin= 9 EnMin= -75.5724295630027     IErMin= 9 ErrMin= 1.01D-07
 ErrMax= 1.01D-07 EMaxC= 1.00D+00 BMatC= 9.78D-14 BMatP= 2.40D-11
 IDIUse=1 WtCom= 1.00D+00 WtEn= 0.00D+00
 Coeff-Com:  0.841D-05 0.818D-06-0.837D-04-0.879D-04 0.194D-02-0.142D-01
 Coeff-Com:  0.467D-01-0.193D+00 0.116D+01
 Coeff:      0.841D-05 0.818D-06-0.837D-04-0.879D-04 0.194D-02-0.142D-01
 Coeff:      0.467D-01-0.193D+00 0.116D+01
 Gap=     0.702 Goal=   None    Shift=    0.000
 RMSDP=4.91D-08 MaxDP=2.23D-07 DE=-5.39D-11 OVMax= 3.03D-07

 Cycle  10  Pass 1  IDiag  1:
 E= -75.5724295630029     Delta-E=        0.000000000000 Rises=F Damp=F
 DIIS: error= 8.52D-09 at cycle  10 NSaved=  10.
 NSaved=10 IEnMin=10 EnMin= -75.5724295630029     IErMin=10 ErrMin= 8.52D-09
 ErrMax= 8.52D-09 EMaxC= 1.00D+00 BMatC= 7.66D-16 BMatP= 9.78D-14
 IDIUse=1 WtCom= 1.00D+00 WtEn= 0.00D+00
 Coeff-Com: -0.684D-06-0.713D-07 0.705D-05 0.524D-05-0.153D-03 0.114D-02
 Coeff-Com: -0.387D-02 0.191D-01-0.180D+00 0.116D+01
 Coeff:     -0.684D-06-0.713D-07 0.705D-05 0.524D-05-0.153D-03 0.114D-02
 Coeff:     -0.387D-02 0.191D-01-0.180D+00 0.116D+01
 Gap=     0.702 Goal=   None    Shift=    0.000
 RMSDP=3.31D-09 MaxDP=1.67D-08 DE=-1.42D-13 OVMax= 1.61D-08

 SCF Done:  E(RHF) =  -75.5724295630     A.U. after   10 cycles
             Convg  =    0.3306D-08             -V/T =  2.0060
 KE= 7.512203521159D+01 PE=-1.961834179649D+02 EE= 3.717918252769D+01
 Leave Link  502 at Sun Apr 10 22:40:31 2016, MaxMem=   33554432 cpu:       0.1
 (Enter /software/gaussian-09RevA.02-el6-x86_64/g09/l801.exe)
 ExpMin= 1.83D-01 ExpMax= 3.22D+02 ExpMxC= 3.22D+02 IAcc=1 IRadAn=         1 AccDes= 0.00D+00
 HarFok:  IExCor=  205 AccDes= 0.00D+00 IRadAn=         1 IDoV=-2
 ScaDFX=  1.000000  1.000000  1.000000  1.000000
 Largest valence mixing into a core orbital is  1.55D-04
 Largest core mixing into a valence orbital is  2.25D-05
 Range of M.O.s used for correlation:     2    13
 NBasis=    13 NAE=     5 NBE=     5 NFC=     1 NFV=     0
 NROrb=     12 NOA=     4 NOB=     4 NVA=     8 NVB=     8
 Leave Link  801 at Sun Apr 10 22:40:32 2016, MaxMem=   33554432 cpu:       0.0
 (Enter /software/gaussian-09RevA.02-el6-x86_64/g09/l804.exe)
 Closed-shell transformation, MDV=    33554432 ITran=3 ISComp=1.
 Semi-Direct transformation.
 ModeAB=           4 MOrb=             4 LenV=      33446104
 LASXX=         1405 LTotXX=        1405 LenRXX=        3209
 LTotAB=        1804 MaxLAS=        3888 LenRXY=           0
 NonZer=        4614 LenScr=      655360 LnRSAI=        3888
 LnScr1=      655360 LExtra=           0 Total=      1317817
 MaxDsk=          -1 SrtSym=           T ITran=            3
 DoSDTr:  NPSUse=  1
 JobTyp=0 Pass  1:  I=   1 to   4.
 (rs|ai) integrals will be sorted in core.
 Complete sort for first half transformation.
 First half transformation complete.
 Complete sort for second half transformation.
 Second half transformation complete.
 Spin components of T(2) and E(2):
     alpha-alpha T2 =       0.3582397489D-02 E2=     -0.1424162280D-01
     alpha-beta  T2 =       0.2819720807D-01 E2=     -0.9894003186D-01
     beta-beta   T2 =       0.3582397489D-02 E2=     -0.1424162280D-01
 ANorm=    0.1017527397D+01
 E2 =    -0.1274232775D+00 EUMP2 =    -0.75699852840464D+02
 Leave Link  804 at Sun Apr 10 22:40:32 2016, MaxMem=   33554432 cpu:       0.1
 (Enter /software/gaussian-09RevA.02-el6-x86_64/g09/l914.exe)
 RHF ground state
 MDV=    33554432 DFT=F DoStab=F Mixed=F DoRPA=F DoScal=F NonHer=F
 Making orbital integer symmetry assigments:
 Orbital symmetries:
       Occupied  (A1) (A1) (B2) (A1) (B1)
       Virtual   (A1) (B2) (A1) (B2) (B1) (A1) (B2) (A1)
 FoFCou: FMM=F IPFlag=           0 FMFlag=      100000 FMFlg1=           0
         NFxFlg=           0 DoJE=F BraDBF=F KetDBF=F FulRan=T
         Omega=  0.000000  0.000000  1.000000  0.000000  0.000000 ICntrl=       0 IOpCl=  1
         NMat0=    1 NMatS0=    1 NMatT0=    0 NMatD0=    1 NMtDS0=    0 NMtDT0=    0
         I1Cent=           0 NGrid=           0.
 Petite list used in FoFCou.
 Generating guess from densities on rwf.
 Convergence on wavefunction:    0.000001000000000
 Davidson Disk Diagonalization:  ConvIn= 1.00D-06 SkipCon=T Conv= 1.00D-06.
 Max sub-space:   200 roots to seek:     3 dimension of matrix:     64
 Iteration     1 Dimension     3 NMult     3
 Excitation Energies [eV] at current iteration:
 Root      1 :     8.312481402710105
 Root      2 :    10.120133892369290
 Root      3 :    10.870885599517150
 Iteration     2 Dimension     6 NMult     6
 Root      1 not converged, maximum delta is    0.036384830624760
 Root      2 not converged, maximum delta is    0.042240083519235
 Root      3 not converged, maximum delta is    0.042813227373214
 Excitation Energies [eV] at current iteration:
 Root      1 :     8.223960571490938   Change is   -0.088520831219167
 Root      2 :    10.031420834864970   Change is   -0.088713057504325
 Root      3 :    10.704068401076450   Change is   -0.166817198440702
 Iteration     3 Dimension     9 NMult     9
 Root      1 not converged, maximum delta is    0.001313031078814
 Root      2 not converged, maximum delta is    0.000340485456952
 Root      3 not converged, maximum delta is    0.006989638030616
 Excitation Energies [eV] at current iteration:
 Root      1 :     8.223550799079176   Change is   -0.000409772411763
 Root      2 :    10.031410385063050   Change is   -0.000010449801917
 Root      3 :    10.700743029747390   Change is   -0.003325371329060
 Iteration     4 Dimension    12 NMult    12
 Root      1 not converged, maximum delta is    0.000136307539412
 Root      2 has converged.
 Root      3 not converged, maximum delta is    0.002566191966328
 Excitation Energies [eV] at current iteration:
 Root      1 :     8.223548851051428   Change is   -0.000001948027747
 Root      2 :    10.031410385059140   Change is   -0.000000000003908
 Root      3 :    10.700546358953970   Change is   -0.000196670793417
 Iteration     5 Dimension    14 NMult    14
 Root      1 not converged, maximum delta is    0.000001812377917
 Root      2 has converged.
 Root      3 not converged, maximum delta is    0.000349496228609
 Excitation Energies [eV] at current iteration:
 Root      1 :     8.223548850649562   Change is   -0.000000000401866
 Root      2 :    10.031410385059130   Change is   -0.000000000000008
 Root      3 :    10.700529999382610   Change is   -0.000016359571359
 Iteration     6 Dimension    16 NMult    16
 Root      1 has converged.
 Root      2 has converged.
 Root      3 not converged, maximum delta is    0.000026047983502
 Excitation Energies [eV] at current iteration:
 Root      1 :     8.223548850649193   Change is   -0.000000000000369
 Root      2 :    10.031410385059150   Change is    0.000000000000014
 Root      3 :    10.700529825234950   Change is   -0.000000174147666
 Iteration     7 Dimension    17 NMult    17
 Root      1 has converged.
 Root      2 has converged.
 Root      3 not converged, maximum delta is    0.000001265867368
 Excitation Energies [eV] at current iteration:
 Root      1 :     8.223548850649172   Change is   -0.000000000000021
 Root      2 :    10.031410385059150   Change is   -0.000000000000002
 Root      3 :    10.700529824745520   Change is   -0.000000000489427
 Iteration     8 Dimension    18 NMult    18
 Root      1 has converged.
 Root      2 has converged.
 Root      3 has converged.
 Excitation Energies [eV] at current iteration:
 Root      1 :     8.223548850649175   Change is    0.000000000000003
 Root      2 :    10.031410385059150   Change is    0.000000000000006
 Root      3 :    10.700529824744030   Change is   -0.000000000001489
 Convergence achieved on expansion vectors.
 ***********************************************************************
 Excited states from <AA,BB:AA,BB> singles matrix:
 ***********************************************************************
 
 1PDM for each excited state written to RWF  633
 Ground to excited state transition electric dipole moments (Au):
       state          X           Y           Z        Dip. S.      Osc.
         1         0.1076      0.0000      0.0000      0.0116      0.0023
         2         0.0000      0.0000      0.0000      0.0000      0.0000
         3         0.0000      0.0000      0.5714      0.3265      0.0856
 Ground to excited state transition velocity dipole moments (Au):
       state          X           Y           Z        Dip. S.      Osc.
         1        -0.1658      0.0000      0.0000      0.0275      0.0606
         2         0.0000      0.0000      0.0000      0.0000      0.0000
         3         0.0000      0.0000     -0.2933      0.0860      0.1458
 Ground to excited state transition magnetic dipole moments (Au):
       state          X           Y           Z
         1         0.0000      0.3558      0.0000
         2         0.0000      0.0000     -0.5139
         3         0.0000      0.0000      0.0000
 <0|del|b> * <b|rxdel|0> + <0|del|b> * <b|delr+rdel|0>
 Rotatory Strengths (R) in cgs (10**-40 erg-esu-cm/Gauss)
       state          XX          YY          ZZ    R(velocity)
         1         0.0000      0.0000      0.0000      0.0000
 Total R(velocity) tensor for State=          1
                 1             2             3 
      1   0.000000D+00  0.495561D+02  0.000000D+00
      2   0.000000D+00  0.000000D+00  0.000000D+00
      3   0.000000D+00  0.000000D+00  0.000000D+00
 R(velocity) tensor in inp. orien. for State=          1
                 1             2             3 
      1   0.000000D+00  0.000000D+00  0.000000D+00
      2   0.301678D+02  0.000000D+00 -0.393155D+02
      3   0.000000D+00  0.000000D+00  0.000000D+00
         2         0.0000      0.0000      0.0000      0.0000
 Total R(velocity) tensor for State=          2
                 1             2             3 
      1   0.000000D+00  0.000000D+00  0.000000D+00
      2   0.000000D+00  0.000000D+00  0.000000D+00
      3   0.000000D+00  0.000000D+00  0.000000D+00
 R(velocity) tensor in inp. orien. for State=          2
                 1             2             3 
      1   0.000000D+00  0.000000D+00  0.000000D+00
      2   0.000000D+00  0.000000D+00  0.000000D+00
      3   0.000000D+00  0.000000D+00  0.000000D+00
         3         0.0000      0.0000      0.0000      0.0000
 Total R(velocity) tensor for State=          3
                 1             2             3 
      1   0.000000D+00 -0.731201D+01  0.000000D+00
      2  -0.149448D+02  0.000000D+00  0.000000D+00
      3   0.000000D+00  0.000000D+00  0.000000D+00
 R(velocity) tensor in inp. orien. for State=          3
                 1             2             3 
      1   0.000000D+00 -0.909779D+01  0.000000D+00
      2  -0.445127D+01  0.000000D+00  0.580100D+01
      3   0.000000D+00  0.118565D+02  0.000000D+00
 1/2[<0|r|b>*<b|rxdel|0> + (<0|rxdel|b>*<b|r|0>)*]
 Rotatory Strengths (R) in cgs (10**-40 erg-esu-cm/Gauss)
       state          XX          YY          ZZ     R(length)     R(au)
         1         0.0000      0.0000      0.0000      0.0000      0.0000
         2         0.0000      0.0000      0.0000      0.0000      0.0000
         3         0.0000      0.0000      0.0000      0.0000      0.0000
  1/2[<0|del|b>*<b|r|0> + (<0|r|b>*<b|del|0>)*] (Au)
       state          X           Y           Z        Dip. S.   Osc.(frdel)
         1        -0.0178      0.0000      0.0000      0.0178      0.0119
         2         0.0000      0.0000      0.0000      0.0000      0.0000
         3         0.0000      0.0000     -0.1676      0.1676      0.1117
 Ground to excited state transition densities written to RWF  633

 Excitation energies and oscillator strengths:
 
 Excited State   1:      Singlet-B1     8.2235 eV  150.77 nm  f=0.0023  <S**2>=0.000
       5 ->  6         0.70331
 This state for optimization and/or second-order correction.
 Total Energy, E(CIS) =  -75.2702196904    
 Copying the excited state density for this state as the 1-particle RhoCI density.
 
 Excited State   2:      Singlet-A2    10.0314 eV  123.60 nm  f=0.0000  <S**2>=0.000
       5 ->  7         0.69986
 
 Excited State   3:      Singlet-A1    10.7005 eV  115.87 nm  f=0.0856  <S**2>=0.000
       3 ->  7        -0.14002
       4 ->  6         0.68957
 SavETr:  write IOETrn=   770 NScale= 10 NData=  16 NLR=1 LETran=      64.
 The selected state is a singlet
 Cannot handle 2e integral symmetry, ISym2E=1.
 CISAX:  IP=  1 NPass=   1 NMax=     1.
 CISAX will form     1 AO SS matrices at one time.
 NMat=     1 NSing=     1.
 Symmetry not used in FoFDir.
 MinBra= 0 MaxBra= 1 Meth= 1.
 IRaf=       0 NMat=   1 IRICut=       1 DoRegI=T DoRafI=F ISym2E= 0 JSym2E=0.
 Leave Link  914 at Sun Apr 10 22:40:32 2016, MaxMem=   33554432 cpu:       0.1
 (Enter /software/gaussian-09RevA.02-el6-x86_64/g09/l1002.exe)
 Minotr:  Closed shell wavefunction.
          Computing CIS/TD-HF/TD-KS derivatives.
          Using Z-Vector for PSCF gradient.
          Skipping F1 and S1 gradient terms here.
          IDoAtm=111
          Frozen-core window.
          Direct CPHF calculation.
          Differentiating once with respect to electric field.
                with respect to dipole field.
          Differentiating once with respect to nuclear coordinates.
          Requested convergence is 1.0D-10 RMS, and 1.0D-09 maximum.
          NewPWx=F KeepS1=T KeepF1=T KeepIn=T MapXYZ=F SortEE=F KeepMc=T.
          MDV=      33554398 using IRadAn=       0.
          Keep R1 ints in memory in canonical form, NReq=804676.
 Symmetry not used in FoFDir.
 MinBra= 0 MaxBra= 1 Meth= 1.
 IRaf=       0 NMat=   1 IRICut=       1 DoRegI=T DoRafI=F ISym2E= 0 JSym2E=0.
          Solving linear equations separately, MaxMat=       0.
          There are     1 degrees of freedom in the 1st order CPHF.  IDoFFX=0.
 LinEq1:  Iter=  0 NonCon=     1 RMS=8.61D-02 Max=4.04D-01
 AX will form     1 AO Fock derivatives at one time.
 LinEq1:  Iter=  1 NonCon=     1 RMS=2.22D-02 Max=1.04D-01
 LinEq1:  Iter=  2 NonCon=     1 RMS=2.42D-03 Max=8.52D-03
 LinEq1:  Iter=  3 NonCon=     1 RMS=3.56D-04 Max=1.31D-03
 LinEq1:  Iter=  4 NonCon=     1 RMS=2.80D-05 Max=9.20D-05
 LinEq1:  Iter=  5 NonCon=     1 RMS=1.98D-06 Max=5.50D-06
 LinEq1:  Iter=  6 NonCon=     1 RMS=1.62D-07 Max=4.62D-07
 LinEq1:  Iter=  7 NonCon=     1 RMS=8.51D-09 Max=2.68D-08
 LinEq1:  Iter=  8 NonCon=     1 RMS=4.52D-10 Max=1.77D-09
 LinEq1:  Iter=  9 NonCon=     0 RMS=2.49D-11 Max=7.61D-11
 Linear equations converged to 1.000D-10 1.000D-09 after     9 iterations.
 End of Minotr Frequency-dependent properties file   721 does not exist.
 End of Minotr Frequency-dependent properties file   722 does not exist.
 Leave Link 1002 at Sun Apr 10 22:40:32 2016, MaxMem=   33554432 cpu:       0.1
 (Enter /software/gaussian-09RevA.02-el6-x86_64/g09/l701.exe)
 Compute integral first derivatives.
 ... and contract with generalized density number  6.
 Leave Link  701 at Sun Apr 10 22:40:32 2016, MaxMem=   33554432 cpu:       0.1
 (Enter /software/gaussian-09RevA.02-el6-x86_64/g09/l702.exe)
 L702 exits ... SP integral derivatives will be done elsewhere.
 Leave Link  702 at Sun Apr 10 22:40:32 2016, MaxMem=   33554432 cpu:       0.0
 (Enter /software/gaussian-09RevA.02-el6-x86_64/g09/l703.exe)
 Compute integral first derivatives, UseDBF=F ICtDFT=           0.
 Integral derivatives from FoFDir, PRISM(SPDF).
 Calling FoFJK, ICntrl=      5127 FMM=F ISym2X=1 I1Cent= 0 IOpClX= 0 NMat=1 NMatS=1 NMatT=0.
 FoFCou: FMM=F IPFlag=           0 FMFlag=      100000 FMFlg1=         800
         NFxFlg=           0 DoJE=F BraDBF=F KetDBF=F FulRan=T
         Omega=  0.000000  0.000000  1.000000  0.000000  0.000000 ICntrl=    5127 IOpCl=  0
         NMat0=    1 NMatS0=    1 NMatT0=    0 NMatD0=    1 NMtDS0=    0 NMtDT0=    0
         I1Cent=           0 NGrid=           0.
 Petite list used in FoFCou.
 Leave Link  703 at Sun Apr 10 22:40:32 2016, MaxMem=   33554432 cpu:       0.1
 (Enter /software/gaussian-09RevA.02-el6-x86_64/g09/l716.exe)
 Dipole        = 1.55715922D-17 0.00000000D+00-6.10470257D-02
 ***** Axes restored to original set *****
 -------------------------------------------------------------------
 Center     Atomic                   Forces (Hartrees/Bohr)
 Number     Number              X              Y              Z
 -------------------------------------------------------------------
      1        8          -0.044728685    0.000000000   -0.034321527
      2        1          -0.012636719    0.000000000    0.062775035
      3        1           0.057365404    0.000000000   -0.028453508
 -------------------------------------------------------------------
 Cartesian Forces:  Max     0.062775035 RMS     0.035558099
 Leave Link  716 at Sun Apr 10 22:40:32 2016, MaxMem=   33554432 cpu:       0.1
 (Enter /software/gaussian-09RevA.02-el6-x86_64/g09/l103.exe)

 GradGradGradGradGradGradGradGradGradGradGradGradGradGradGradGradGradGrad
 Berny optimization.
 Using GEDIIS/GDIIS optimizer.
 Internal  Forces:  Max     0.063247591 RMS     0.052917072
 Search for a local minimum.
 Step number   2 out of a maximum of   20
 All quantities printed in internal units (Hartrees-Bohrs-Radians)
 RMS Force = .52917D-01 SwitMx=.10000D-02 MixMth= 1
 Mixed Optimization -- RFO/linear search
 Update second derivatives using D2CorX and points    1    2
 DE= -4.32D-02 DEPred=-3.78D-02 R= 1.14D+00
 SS=  1.41D+00  RLast= 3.00D-01 DXNew= 5.0454D-01 9.0000D-01
 Trust test= 1.14D+00 RLast= 3.00D-01 DXMaxT set to 5.05D-01
 The second derivative matrix:
                          R1        R2        A1
           R1           0.50306
           R2          -0.07375   0.50306
           A1          -0.02808  -0.02808   0.15644
 Use linear search instead of GDIIS.
 Linear search step of   0.600 exceeds DXMaxT=   0.505 but not scaled.
 Quartic linear search produced a step of  2.00000.
 Iteration  1 RMS(Cart)=  0.21166097 RMS(Int)=  0.16494972
 Iteration  2 RMS(Cart)=  0.15320733 RMS(Int)=  0.00155679
 Iteration  3 RMS(Cart)=  0.00184203 RMS(Int)=  0.00000067
 Iteration  4 RMS(Cart)=  0.00000063 RMS(Int)=  0.00000000
 ClnCor:  largest displacement from symmetrization is 4.58D-16 for atom     2.
 Variable       Old X    -DE/DX   Delta X   Delta X   Delta X     New X
                                 (Linear)    (Quad)   (Total)
    R1        1.99900   0.06325   0.40751   0.00000   0.40751   2.40651
    R2        1.99900   0.06325   0.40751   0.00000   0.40751   2.40651
    A1        1.91606   0.02000   0.16693   0.00000   0.16693   2.08299
         Item               Value     Threshold  Converged?
 Maximum Force            0.063248     0.000450     NO 
 RMS     Force            0.052917     0.000300     NO 
 Maximum Displacement     0.363863     0.001800     NO 
 RMS     Displacement     0.362129     0.001200     NO 
 Predicted change in Energy=-1.476713D-02
 GradGradGradGradGradGradGradGradGradGradGradGradGradGradGradGradGradGrad

 Leave Link  103 at Sun Apr 10 22:40:32 2016, MaxMem=   33554432 cpu:       0.0
 (Enter /software/gaussian-09RevA.02-el6-x86_64/g09/l202.exe)
                          Input orientation:                          
 ---------------------------------------------------------------------
 Center     Atomic      Atomic             Coordinates (Angstroms)
 Number     Number       Type             X           Y           Z
 ---------------------------------------------------------------------
      1          8           0       -0.034214    0.000000   -0.026253
      2          1           0       -0.193234    0.000000    1.237249
      3          1           0        1.145078    0.000000   -0.506874
 ---------------------------------------------------------------------
                    Distance matrix (angstroms):
                    1          2          3
     1  O    0.000000
     2  H    1.273470   0.000000
     3  H    1.273470   2.198419   0.000000
 Stoichiometry    H2O
 Framework group  C2V[C2(O),SGV(H2)]
 Deg. of freedom     2
 Full point group                 C2V     NOp   4
 Largest Abelian subgroup         C2V     NOp   4
 Largest concise Abelian subgroup C2      NOp   2
                         Standard orientation:                         
 ---------------------------------------------------------------------
 Center     Atomic      Atomic             Coordinates (Angstroms)
 Number     Number       Type             X           Y           Z
 ---------------------------------------------------------------------
      1          8           0        0.000000    0.000000    0.128602
      2          1           0        0.000000    1.099209   -0.514410
      3          1           0        0.000000   -1.099209   -0.514410
 ---------------------------------------------------------------------
 Rotational constants (GHZ):    682.8241732    207.5110737    159.1463191
 Leave Link  202 at Sun Apr 10 22:40:32 2016, MaxMem=   33554432 cpu:       0.0
 (Enter /software/gaussian-09RevA.02-el6-x86_64/g09/l301.exe)
 Standard basis: 3-21G (6D, 7F)
 Ernie: Thresh=  0.10000D-02 Tol=  0.10000D-05 Strict=F.
 There are     7 symmetry adapted basis functions of A1  symmetry.
 There are     0 symmetry adapted basis functions of A2  symmetry.
 There are     2 symmetry adapted basis functions of B1  symmetry.
 There are     4 symmetry adapted basis functions of B2  symmetry.
 Integral buffers will be    131072 words long.
 Raffenetti 1 integral format.
 Two-electron integral symmetry is turned on.
    13 basis functions,    21 primitive gaussians,    13 cartesian basis functions
     5 alpha electrons        5 beta electrons
       nuclear repulsion energy         6.8893415467 Hartrees.
 IExCor=    0 DFT=F Ex=HF Corr=None ExCW=0 ScaHFX=  1.000000
 ScaDFX=  1.000000  1.000000  1.000000  1.000000 ScalE2=  1.000000  1.000000
 IRadAn=      0 IRanWt=     -1 IRanGd=            0 ICorTp=0
 NAtoms=    3 NActive=    3 NUniq=    2 SFac= 1.69D+00 NAtFMM=   80 NAOKFM=F Big=F
 Leave Link  301 at Sun Apr 10 22:40:32 2016, MaxMem=   33554432 cpu:       0.1
 (Enter /software/gaussian-09RevA.02-el6-x86_64/g09/l302.exe)
 NPDir=0 NMtPBC=     1 NCelOv=     1 NCel=       1 NClECP=     1 NCelD=      1
         NCelK=      1 NCelE2=     1 NClLst=     1 CellRange=     0.0.
 One-electron integrals computed using PRISM.
 One-electron integral symmetry used in STVInt
 NBasis=    13 RedAO= T  NBF=     7     0     2     4
 NBsUse=    13 1.00D-06 NBFU=     7     0     2     4
 Leave Link  302 at Sun Apr 10 22:40:33 2016, MaxMem=   33554432 cpu:       0.1
 (Enter /software/gaussian-09RevA.02-el6-x86_64/g09/l308.exe)
 Leave Link  308 at Sun Apr 10 22:40:33 2016, MaxMem=   33554432 cpu:       0.0
 (Enter /software/gaussian-09RevA.02-el6-x86_64/g09/l303.exe)
 DipDrv:  MaxL=1.
 Leave Link  303 at Sun Apr 10 22:40:33 2016, MaxMem=   33554432 cpu:       0.1
 (Enter /software/gaussian-09RevA.02-el6-x86_64/g09/l401.exe)
 Initial guess read from the read-write file.
 B after Tr=     0.000000    0.000000    0.000000
         Rot=    1.000000    0.000000    0.000000    0.000000 Ang=   0.00 deg.
 Guess basis will be translated and rotated to current coordinates.
 Initial guess orbital symmetries:
       Occupied  (A1) (A1) (B2) (A1) (B1)
       Virtual   (A1) (B2) (A1) (B2) (B1) (A1) (B2) (A1)
 The electronic state of the initial guess is 1-A1.
 Generating alternative initial guess.
 Harris functional with IExCor=  205 diagonalized for initial guess.
 ExpMin= 1.83D-01 ExpMax= 3.22D+02 ExpMxC= 3.22D+02 IAcc=1 IRadAn=         1 AccDes= 0.00D+00
 HarFok:  IExCor=  205 AccDes= 0.00D+00 IRadAn=         1 IDoV= 1
 ScaDFX=  1.000000  1.000000  1.000000  1.000000
 FoFCou: FMM=F IPFlag=           0 FMFlag=      100000 FMFlg1=           0
         NFxFlg=           0 DoJE=T BraDBF=F KetDBF=T FulRan=T
         Omega=  0.000000  0.000000  1.000000  0.000000  0.000000 ICntrl=     500 IOpCl=  0
         NMat0=    1 NMatS0=    1 NMatT0=    0 NMatD0=    1 NMtDS0=    0 NMtDT0=    0
         I1Cent=           4 NGrid=           0.
 Petite list used in FoFCou.
 Harris En= -75.6023839042080    
 Leave Link  401 at Sun Apr 10 22:40:33 2016, MaxMem=   33554432 cpu:       0.3
 (Enter /software/gaussian-09RevA.02-el6-x86_64/g09/l502.exe)
 Closed shell SCF:
 Requested convergence on RMS density matrix=1.00D-08 within 128 cycles.
 Requested convergence on MAX density matrix=1.00D-06.
 Requested convergence on             energy=1.00D-06.
 No special actions if energy rises.
 Using DIIS extrapolation, IDIIS=  1040.
 Integral symmetry usage will be decided dynamically.
 Keep R1 ints in memory in canonical form, NReq=823981.
 IEnd=       19781 IEndB=       19781 NGot=    33554432 MDV=    33547540
 LenX=    33547540 LenY=    33546658
 Symmetry not used in FoFDir.
 MinBra= 0 MaxBra= 1 Meth= 1.
 IRaf=       0 NMat=   1 IRICut=       1 DoRegI=T DoRafI=F ISym2E= 0 JSym2E=0.

 Cycle   1  Pass 1  IDiag  1:
 E= -75.4608275982822    
 DIIS: error= 3.31D-02 at cycle   1 NSaved=   1.
 NSaved= 1 IEnMin= 1 EnMin= -75.4608275982822     IErMin= 1 ErrMin= 3.31D-02
 ErrMax= 3.31D-02 EMaxC= 1.00D-01 BMatC= 1.80D-02 BMatP= 1.80D-02
 IDIUse=3 WtCom= 6.69D-01 WtEn= 3.31D-01
 Coeff-Com:  0.100D+01
 Coeff-En:   0.100D+01
 Coeff:      0.100D+01
 Recover alternate guess density for next cycle.
 RMSDP=1.22D-02 MaxDP=4.28D-02              OVMax= 0.00D+00

 Cycle   2  Pass 1  IDiag  1:
 E= -75.3924626819164     Delta-E=        0.068364916366 Rises=F Damp=F
 Switch densities from cycles 1 and 2 for lowest energy.
 DIIS: error= 9.64D-02 at cycle   2 NSaved=   2.
 NSaved= 2 IEnMin= 1 EnMin= -75.4608275982822     IErMin= 1 ErrMin= 3.31D-02
 ErrMax= 9.64D-02 EMaxC= 1.00D+00 BMatC= 1.19D-01 BMatP= 1.80D-02
 IDIUse=1 WtCom= 1.00D+00 WtEn= 0.00D+00
 Coeff-Com:  0.106D+01-0.554D-01
 Coeff:      0.106D+01-0.554D-01
 Gap=     0.608 Goal=   None    Shift=    0.000
 RMSDP=9.16D-03 MaxDP=3.78D-02 DE= 6.84D-02 OVMax= 5.04D-02

 Cycle   3  Pass 1  IDiag  1:
 E= -75.4772628549670     Delta-E=       -0.084800173051 Rises=F Damp=F
 DIIS: error= 1.48D-02 at cycle   3 NSaved=   3.
 NSaved= 3 IEnMin= 3 EnMin= -75.4772628549670     IErMin= 3 ErrMin= 1.48D-02
 ErrMax= 1.48D-02 EMaxC= 1.00D+00 BMatC= 2.38D-03 BMatP= 1.80D-02
 IDIUse=1 WtCom= 1.00D+00 WtEn= 0.00D+00
 Coeff-Com: -0.843D-01 0.112D+00 0.972D+00
 Coeff:     -0.843D-01 0.112D+00 0.972D+00
 Gap=     0.600 Goal=   None    Shift=    0.000
 RMSDP=2.26D-03 MaxDP=1.17D-02 DE=-8.48D-02 OVMax= 1.06D-02

 Cycle   4  Pass 1  IDiag  1:
 E= -75.4790341383042     Delta-E=       -0.001771283337 Rises=F Damp=F
 DIIS: error= 2.15D-03 at cycle   4 NSaved=   4.
 NSaved= 4 IEnMin= 4 EnMin= -75.4790341383042     IErMin= 4 ErrMin= 2.15D-03
 ErrMax= 2.15D-03 EMaxC= 1.00D+00 BMatC= 5.41D-05 BMatP= 2.38D-03
 IDIUse=1 WtCom= 1.00D+00 WtEn= 0.00D+00
 Coeff-Com: -0.993D-02-0.123D-01-0.124D+00 0.115D+01
 Coeff:     -0.993D-02-0.123D-01-0.124D+00 0.115D+01
 Gap=     0.605 Goal=   None    Shift=    0.000
 RMSDP=9.41D-04 MaxDP=3.14D-03 DE=-1.77D-03 OVMax= 8.11D-03

 Cycle   5  Pass 1  IDiag  1:
 E= -75.4791684621579     Delta-E=       -0.000134323854 Rises=F Damp=F
 DIIS: error= 1.13D-03 at cycle   5 NSaved=   5.
 NSaved= 5 IEnMin= 5 EnMin= -75.4791684621579     IErMin= 5 ErrMin= 1.13D-03
 ErrMax= 1.13D-03 EMaxC= 1.00D+00 BMatC= 1.12D-05 BMatP= 5.41D-05
 IDIUse=1 WtCom= 1.00D+00 WtEn= 0.00D+00
 Coeff-Com:  0.107D-01 0.208D-02-0.429D-01-0.312D+00 0.134D+01
 Coeff:      0.107D-01 0.208D-02-0.429D-01-0.312D+00 0.134D+01
 Gap=     0.609 Goal=   None    Shift=    0.000
 RMSDP=4.08D-04 MaxDP=1.42D-03 DE=-1.34D-04 OVMax= 3.38D-03

 Cycle   6  Pass 1  IDiag  1:
 E= -75.4791907912572     Delta-E=       -0.000022329099 Rises=F Damp=F
 DIIS: error= 2.61D-04 at cycle   6 NSaved=   6.
 NSaved= 6 IEnMin= 6 EnMin= -75.4791907912572     IErMin= 6 ErrMin= 2.61D-04
 ErrMax= 2.61D-04 EMaxC= 1.00D+00 BMatC= 5.38D-07 BMatP= 1.12D-05
 IDIUse=1 WtCom= 1.00D+00 WtEn= 0.00D+00
 Coeff-Com: -0.450D-02-0.612D-03 0.271D-01 0.109D+00-0.693D+00 0.156D+01
 Coeff:     -0.450D-02-0.612D-03 0.271D-01 0.109D+00-0.693D+00 0.156D+01
 Gap=     0.609 Goal=   None    Shift=    0.000
 RMSDP=1.59D-04 MaxDP=5.64D-04 DE=-2.23D-05 OVMax= 1.36D-03

 Cycle   7  Pass 1  IDiag  1:
 E= -75.4791935635512     Delta-E=       -0.000002772294 Rises=F Damp=F
 DIIS: error= 8.39D-05 at cycle   7 NSaved=   7.
 NSaved= 7 IEnMin= 7 EnMin= -75.4791935635512     IErMin= 7 ErrMin= 8.39D-05
 ErrMax= 8.39D-05 EMaxC= 1.00D+00 BMatC= 5.23D-08 BMatP= 5.38D-07
 IDIUse=1 WtCom= 1.00D+00 WtEn= 0.00D+00
 Coeff-Com:  0.803D-03 0.189D-03-0.790D-02-0.165D-01 0.167D+00-0.743D+00
 Coeff-Com:  0.160D+01
 Coeff:      0.803D-03 0.189D-03-0.790D-02-0.165D-01 0.167D+00-0.743D+00
 Coeff:      0.160D+01
 Gap=     0.609 Goal=   None    Shift=    0.000
 RMSDP=6.53D-05 MaxDP=2.45D-04 DE=-2.77D-06 OVMax= 5.42D-04

 Cycle   8  Pass 1  IDiag  1:
 E= -75.4791938550382     Delta-E=       -0.000000291487 Rises=F Damp=F
 DIIS: error= 6.25D-06 at cycle   8 NSaved=   8.
 NSaved= 8 IEnMin= 8 EnMin= -75.4791938550382     IErMin= 8 ErrMin= 6.25D-06
 ErrMax= 6.25D-06 EMaxC= 1.00D+00 BMatC= 4.92D-10 BMatP= 5.23D-08
 IDIUse=1 WtCom= 1.00D+00 WtEn= 0.00D+00
 Coeff-Com: -0.126D-03-0.488D-04 0.160D-02 0.361D-02-0.398D-01 0.190D+00
 Coeff-Com: -0.467D+00 0.131D+01
 Coeff:     -0.126D-03-0.488D-04 0.160D-02 0.361D-02-0.398D-01 0.190D+00
 Coeff:     -0.467D+00 0.131D+01
 Gap=     0.609 Goal=   None    Shift=    0.000
 RMSDP=4.63D-06 MaxDP=1.92D-05 DE=-2.91D-07 OVMax= 3.80D-05

 Cycle   9  Pass 1  IDiag  1:
 E= -75.4791938563898     Delta-E=       -0.000000001352 Rises=F Damp=F
 DIIS: error= 3.58D-07 at cycle   9 NSaved=   9.
 NSaved= 9 IEnMin= 9 EnMin= -75.4791938563898     IErMin= 9 ErrMin= 3.58D-07
 ErrMax= 3.58D-07 EMaxC= 1.00D+00 BMatC= 7.98D-13 BMatP= 4.92D-10
 IDIUse=1 WtCom= 1.00D+00 WtEn= 0.00D+00
 Coeff-Com:  0.131D-04 0.501D-05-0.175D-03-0.403D-03 0.464D-02-0.220D-01
 Coeff-Com:  0.541D-01-0.173D+00 0.114D+01
 Coeff:      0.131D-04 0.501D-05-0.175D-03-0.403D-03 0.464D-02-0.220D-01
 Coeff:      0.541D-01-0.173D+00 0.114D+01
 Gap=     0.609 Goal=   None    Shift=    0.000
 RMSDP=8.22D-08 MaxDP=4.34D-07 DE=-1.35D-09 OVMax= 4.78D-07

 Cycle  10  Pass 1  IDiag  1:
 E= -75.4791938563909     Delta-E=       -0.000000000001 Rises=F Damp=F
 DIIS: error= 2.69D-08 at cycle  10 NSaved=  10.
 NSaved=10 IEnMin=10 EnMin= -75.4791938563909     IErMin=10 ErrMin= 2.69D-08
 ErrMax= 2.69D-08 EMaxC= 1.00D+00 BMatC= 6.67D-15 BMatP= 7.98D-13
 IDIUse=1 WtCom= 1.00D+00 WtEn= 0.00D+00
 Coeff-Com: -0.273D-06-0.112D-06 0.376D-05 0.759D-05-0.104D-03 0.476D-03
 Coeff-Com: -0.134D-02 0.551D-02-0.107D+00 0.110D+01
 Coeff:     -0.273D-06-0.112D-06 0.376D-05 0.759D-05-0.104D-03 0.476D-03
 Coeff:     -0.134D-02 0.551D-02-0.107D+00 0.110D+01
 Gap=     0.609 Goal=   None    Shift=    0.000
 RMSDP=1.36D-08 MaxDP=5.45D-08 DE=-1.07D-12 OVMax= 1.04D-07

 Cycle  11  Pass 1  IDiag  1:
 E= -75.4791938563910     Delta-E=        0.000000000000 Rises=F Damp=F
 DIIS: error= 3.72D-09 at cycle  11 NSaved=  11.
 NSaved=11 IEnMin=11 EnMin= -75.4791938563910     IErMin=11 ErrMin= 3.72D-09
 ErrMax= 3.72D-09 EMaxC= 1.00D+00 BMatC= 1.18D-16 BMatP= 6.67D-15
[...]
 CISAX will form    12 AO SS matrices at one time.
 NMat=    12 NSing=    12.
 Symmetry not used in FoFDir.
 MinBra= 0 MaxBra= 1 Meth= 1.
 IRaf=       0 NMat=  12 IRICut=      30 DoRegI=T DoRafI=T ISym2E= 0 JSym2E=0.
 Symmetry is being used.
      9 vectors produced by pass  0 Test12= 2.67D-16 8.33D-09 XBig12= 4.62D+00 2.15D+00.
 AX will form     9 AO Fock derivatives at one time.
      7 vectors produced by pass  1 Test12= 2.67D-16 8.33D-09 XBig12= 6.87D-04 2.17D-02.
      3 vectors produced by pass  2 Test12= 2.67D-16 8.33D-09 XBig12= 3.06D-06 1.18D-03.
      3 vectors produced by pass  3 Test12= 2.67D-16 8.33D-09 XBig12= 9.08D-09 7.28D-05.
      2 vectors produced by pass  4 Test12= 2.67D-16 8.33D-09 XBig12= 1.18D-12 7.10D-07.
      1 vectors produced by pass  5 Test12= 2.67D-16 8.33D-09 XBig12= 6.90D-15 7.00D-08.
 Inverted reduced A of dimension    25 with in-core refinement.
 Max Tx.T =      0.000000000230 for Degree =    11
 The selected state is a singlet
 Computing gradients using direct method.
 Cannot handle 2e integral symmetry, ISym2E=1.
 CISAX:  IP=  1 NPass=   1 NMax=    12.
 CISAX will form    12 AO SS matrices at one time.
 NMat=    12 NSing=    12.
 Symmetry is being used.
 Interchange theorem applied.
 Leave Link 1014 at Sun Apr 10 22:40:49 2016, MaxMem=   33554432 cpu:       0.3
 (Enter /software/gaussian-09RevA.02-el6-x86_64/g09/l601.exe)
 Copying SCF densities to generalized density rwf, IOpCl= 0 IROHF=0.

 **********************************************************************

            Population analysis using the SCF density.

 **********************************************************************

 Orbital symmetries:
       Occupied  (A1) (A1) (B2) (B1) (A1)
       Virtual   (A1) (B2) (A1) (B2) (B1) (A1) (B2) (A1)
 The electronic state is 1-A1.
 Alpha  occ. eigenvalues --  -20.35171  -1.15044  -0.57813  -0.39239  -0.39239
 Alpha virt. eigenvalues --    0.10281   0.33825   1.03273   1.20295   1.85506
 Alpha virt. eigenvalues --    1.85506   2.32863   2.96510
          Condensed to atoms (all electrons):
              1          2          3
     1  O    8.391417   0.244338   0.244338
     2  H    0.244338   0.336270  -0.020655
     3  H    0.244338  -0.020655   0.336270
 Mulliken atomic charges:
              1
     1  O   -0.880093
     2  H    0.440047
     3  H    0.440047
 Sum of Mulliken atomic charges =   0.00000
 Mulliken charges with hydrogens summed into heavy atoms:
              1
     1  O    0.000000
 Sum of Mulliken charges with hydrogens summed into heavy atoms =   0.00000
 APT atomic charges:
              1
     1  O    1.498101
     2  H   -0.749050
     3  H   -0.749050
 Sum of APT charges=   0.00000
 APT Atomic charges with hydrogens summed into heavy atoms:
              1
     1  O    0.000000
     2  H    0.000000
     3  H    0.000000
 Sum of APT charges=   0.00000
 Electronic spatial extent (au):  <R**2>=             20.6756
 Charge=              0.0000 electrons
 Dipole moment (field-independent basis, Debye):
    X=              0.0000    Y=              0.0000    Z=             -0.0011  Tot=              0.0011
 Quadrupole moment (field-independent basis, Debye-Ang):
   XX=             -7.2519   YY=              0.5766   ZZ=             -7.2519
   XY=              0.0000   XZ=              0.0000   YZ=              0.0000
 Traceless Quadrupole moment (field-independent basis, Debye-Ang):
   XX=             -2.6095   YY=              5.2190   ZZ=             -2.6095
   XY=              0.0000   XZ=              0.0000   YZ=              0.0000
 Octapole moment (field-independent basis, Debye-Ang**2):
  XXX=              0.0000  YYY=              0.0000  ZZZ=             -0.0002  XYY=              0.0000
  XXY=              0.0000  XXZ=             -0.0001  XZZ=              0.0000  YZZ=              0.0000
  YYZ=             -0.0011  XYZ=              0.0000
 Hexadecapole moment (field-independent basis, Debye-Ang**3):
 XXXX=             -4.6511 YYYY=             -0.1290 ZZZZ=             -4.6511 XXXY=              0.0000
 XXXZ=              0.0000 YYYX=              0.0000 YYYZ=              0.0000 ZZZX=              0.0000
 ZZZY=              0.0000 XXYY=             -2.7518 XXZZ=             -1.5504 YYZZ=             -2.7518
 XXYZ=              0.0000 YYXZ=              0.0000 ZZXY=              0.0000
 N-N= 7.263329065262D+00 E-N=-1.944151696679D+02  KE= 7.474439233125D+01
 Symmetry A1   KE= 6.765755857544D+01
 Symmetry A2   KE= 0.000000000000D+00
 Symmetry B1   KE= 4.553099654244D+00
 Symmetry B2   KE= 2.533734101560D+00
  Exact polarizability:   1.288   0.000  48.033   0.000   0.000   0.521
 Approx polarizability:   0.450   0.000  13.002   0.000   0.000   0.450
 No NMR shielding tensors so no spin-rotation constants.
 Leave Link  601 at Sun Apr 10 22:40:49 2016, MaxMem=   33554432 cpu:       0.1
 (Enter /software/gaussian-09RevA.02-el6-x86_64/g09/l701.exe)
 Compute integral second derivatives.
 ... and contract with generalized density number  6.
 Leave Link  701 at Sun Apr 10 22:40:49 2016, MaxMem=   33554432 cpu:       0.1
 (Enter /software/gaussian-09RevA.02-el6-x86_64/g09/l702.exe)
 L702 exits ... SP integral derivatives will be done elsewhere.
 Leave Link  702 at Sun Apr 10 22:40:49 2016, MaxMem=   33554432 cpu:       0.1
 (Enter /software/gaussian-09RevA.02-el6-x86_64/g09/l703.exe)
 Compute integral second derivatives, UseDBF=F ICtDFT=           0.
 Integral derivatives from FoFDir, PRISM(SPDF).
 Calling FoFJK, ICntrl=    105127 FMM=F ISym2X=1 I1Cent= 0 IOpClX= 0 NMat=1 NMatS=1 NMatT=0.
 FoFCou: FMM=F IPFlag=           0 FMFlag=      100000 FMFlg1=         800
         NFxFlg=           0 DoJE=F BraDBF=F KetDBF=F FulRan=T
         Omega=  0.000000  0.000000  1.000000  0.000000  0.000000 ICntrl=  105127 IOpCl=  0
         NMat0=    1 NMatS0=    1 NMatT0=    0 NMatD0=    1 NMtDS0=    0 NMtDT0=    0
         I1Cent=           0 NGrid=           0.
 Petite list used in FoFCou.
 Leave Link  703 at Sun Apr 10 22:40:50 2016, MaxMem=   33554432 cpu:       0.1
 (Enter /software/gaussian-09RevA.02-el6-x86_64/g09/l716.exe)
 Dipole        =-3.07581479D-17-6.66133815D-16-9.17880324D-05
 Polarizability= 1.28786873D+00 1.51856251D-14 4.80332756D+01
                 6.74502155D-16 2.37734784D-18 5.20991499D-01
 Full mass-weighted force constant matrix:
 Low frequencies ----2560.3891   -0.0005    0.0013    0.0013   10.6521   10.6529
 Low frequencies ---  102.6828 1880.1211 2427.0270
 ******    1 imaginary frequencies (negative Signs) ****** 
 Diagonal vibrational polarizability:
        0.0000000      45.1562587      78.5692824
 Harmonic frequencies (cm**-1), IR intensities (KM/Mole), Raman scattering
 activities (A**4/AMU), depolarization ratios for plane and unpolarized
 incident light, reduced masses (AMU), force constants (mDyne/A),
 and normal coordinates:
                     1                      2                      3
                    B2                     A1                     A1
 Frequencies -- -2560.3891               102.6828              2427.0270
 Red. masses --     1.1259                 1.1259                 1.0078
 Frc consts  --     4.3487                 0.0070                 3.4977
 IR Inten    -- 11000.1044                30.7833                 0.0000
  Atom  AN      X      Y      Z        X      Y      Z        X      Y      Z
     1   8     0.00   0.09   0.00     0.00   0.00   0.09     0.00   0.00   0.00
     2   1     0.00  -0.70   0.00     0.00   0.00  -0.70     0.00   0.71   0.00
     3   1     0.00  -0.70   0.00     0.00   0.00  -0.70     0.00  -0.71   0.00

 -------------------
 - Thermochemistry -
 -------------------
 Temperature   298.150 Kelvin.  Pressure   1.00000 Atm.
 Atom     1 has atomic number  8 and mass  15.99491
 Atom     2 has atomic number  1 and mass   1.00783
 Atom     3 has atomic number  1 and mass   1.00783
 Molecular mass:    18.01056 amu.
 Principal axes and moments of inertia in atomic units:
                           1         2         3
     Eigenvalues --     0.00000  10.40187  10.40187
           X            0.00000   0.00000   1.00000
           Y            1.00000   0.00000   0.00000
           Z            0.00000   1.00000   0.00000
 This molecule is a prolate symmetric top.
 Rotational symmetry number  2.
 Rotational temperatures (Kelvin) ************     8.32675     8.32675
 Rotational constants (GHZ):      ************   173.50155   173.50155
    1 imaginary frequencies ignored.
 Zero-point vibrational energy      15131.0 (Joules/Mol)
                                    3.61640 (Kcal/Mol)
 Warning -- explicit consideration of   1 degrees of freedom as
           vibrations may cause significant error
 Vibrational temperatures:    147.74  3491.95
          (Kelvin)
 
 Zero-point correction=                           0.005763 (Hartree/Particle)
 Thermal correction to Energy=                    0.009325
 Thermal correction to Enthalpy=                  0.010269
 Thermal correction to Gibbs Free Energy=        -0.005909
 Sum of electronic and zero-point Energies=            -75.290091
 Sum of electronic and thermal Energies=               -75.286529
 Sum of electronic and thermal Enthalpies=             -75.285585
 Sum of electronic and thermal Free Energies=          -75.301764
 
                     E (Thermal)             CV                S
                      KCal/Mol        Cal/Mol-Kelvin    Cal/Mol-Kelvin
 Total                    5.852              7.911             34.051
 Electronic               0.000              0.000              0.000
 Translational            0.889              2.981             34.608
 Rotational               0.889              2.981             -3.960
 Vibrational              4.074              1.949              3.403
 Vibration     1          0.605              1.947              3.403
                       Q            Log10(Q)             Ln(Q)
 Total Bot       0.522456D+03          2.718050          6.258540
 Total V=0       0.233823D+06          5.368887         12.362320
 Vib (Bot)       0.571841D-02         -2.242725         -5.164065
 Vib (Bot)    1  0.199761D+01          0.300510          0.691950
 Vib (V=0)       0.255925D+01          0.408113          0.939715
 Vib (V=0)    1  0.255923D+01          0.408109          0.939707
 Electronic      0.100000D+01          0.000000          0.000000
 Translational   0.300432D+07          6.477746         14.915562
 Rotational      0.304108D-01         -1.516972         -3.492957
 
                                                           H20 MCSCF/3-21G
                                                             IR Spectrum
 
     2                                                                                                                               
     4                                                                                                                         1     
     2                                                                                                                         0     
     7                                                                                                                         3     
 
                                                                                                                               X     
                                                                                                                               X     
                                                                                                                               X     
                                                                                                                               X     
                                                                                                                               X     
                                                                                                                               X     
                                                                                                                               X     
                                                                                                                               X     
                                                                                                                               X     
                                                                                                                               X     
                                                                                                                               X     
                                                                                                                               X     
                                                                                                                               X     
                                                                                                                               X     
                                                                                                                               X     
                                                                                                                               X     
                                                                                                                               X     
                                                                                                                               X     
                                                                                                                               X     
                                                                                                                               X     
 
 ***** Axes restored to original set *****
 -------------------------------------------------------------------
 Center     Atomic                   Forces (Hartrees/Bohr)
 Number     Number              X              Y              Z
 -------------------------------------------------------------------
      1        8           0.000000219    0.000000000    0.000000168
      2        1           0.000005877    0.000000000   -0.000007885
      3        1          -0.000006096    0.000000000    0.000007717
 -------------------------------------------------------------------
 Cartesian Forces:  Max     0.000007885 RMS     0.000004637
 Force constants in Cartesian coordinates: 
                1             2             3             4             5 
      1 -0.164127D+00
      2  0.000000D+00  0.239460D+00
      3  0.214825D+00  0.000000D+00 -0.279251D+00
      4  0.820733D-01  0.000000D+00 -0.107367D+00  0.588204D-03
      5  0.000000D+00 -0.119730D+00  0.000000D+00  0.000000D+00  0.598671D-01
      6 -0.107463D+00  0.000000D+00  0.139616D+00 -0.541275D-03  0.000000D+00
      7  0.820535D-01  0.000000D+00 -0.107458D+00 -0.826615D-01  0.000000D+00
      8  0.000000D+00 -0.119730D+00  0.000000D+00  0.000000D+00  0.598628D-01
      9 -0.107362D+00  0.000000D+00  0.139635D+00  0.107908D+00  0.000000D+00
                6             7             8             9 
      6  0.899493D-03
      7  0.108004D+00  0.608003D-03
      8  0.000000D+00  0.000000D+00  0.598671D-01
      9 -0.140515D+00 -0.546580D-03  0.000000D+00  0.879694D-03
 Force constants in internal coordinates: 
                1             2             3 
      1  0.130697D-02
      2  0.223353D+00  0.130697D-02
      3 -0.229838D-04 -0.229838D-04  0.910332D-03
 Leave Link  716 at Sun Apr 10 22:40:50 2016, MaxMem=   33554432 cpu:       0.1
 (Enter /software/gaussian-09RevA.02-el6-x86_64/g09/l103.exe)

 GradGradGradGradGradGradGradGradGradGradGradGradGradGradGradGradGradGrad
 Berny optimization.
 Internal  Forces:  Max     0.000009833 RMS     0.000008031
 Search for a local minimum.
 Step number   1 out of a maximum of    2
 All quantities printed in internal units (Hartrees-Bohrs-Radians)
 Second derivative matrix not updated -- analytic derivatives used.
 The second derivative matrix:
                          R1        R2        A1
           R1           0.00131
           R2           0.22335   0.00131
           A1          -0.00002  -0.00002   0.00091
     Eigenvalues ---   -0.22205   0.00091   0.22466
 Eigenvalue     1 is  -2.22D-01 should be greater than     0.000000 Eigenvector:
                          R2        R1        A1
   1                   -0.70711   0.70711   0.00000
 Angle between quadratic step and forces=  78.35 degrees.
 Linear search not attempted -- first point.
 Iteration  1 RMS(Cart)=  0.00018445 RMS(Int)=  0.00000003
 Iteration  2 RMS(Cart)=  0.00000003 RMS(Int)=  0.00000000
 ClnCor:  largest displacement from symmetrization is 4.99D-16 for atom     3.
 Variable       Old X    -DE/DX   Delta X   Delta X   Delta X     New X
                                 (Linear)    (Quad)   (Total)
    R1        2.27169  -0.00001   0.00000  -0.00004  -0.00004   2.27164
    R2        2.27169  -0.00001   0.00000  -0.00004  -0.00004   2.27164
    A1        3.14125   0.00000   0.00000   0.00034   0.00034   3.14159
         Item               Value     Threshold  Converged?
 Maximum Force            0.000010     0.000450     YES
 RMS     Force            0.000008     0.000300     YES
 Maximum Displacement     0.000203     0.001800     YES
 RMS     Displacement     0.000184     0.001200     YES
 Predicted change in Energy=-4.823870D-10
 Optimization completed.
    -- Stationary point found.
                           ----------------------------
                           !   Optimized Parameters   !
                           ! (Angstroms and Degrees)  !
 --------------------------                            --------------------------
 ! Name  Definition              Value          Derivative Info.                !
 --------------------------------------------------------------------------------
 ! R1    R(1,2)                  1.2021         -DE/DX =    0.0                 !
 ! R2    R(1,3)                  1.2021         -DE/DX =    0.0                 !
 ! A1    A(2,1,3)              179.9805         -DE/DX =    0.0                 !
 --------------------------------------------------------------------------------
 GradGradGradGradGradGradGradGradGradGradGradGradGradGradGradGradGradGrad

 Leave Link  103 at Sun Apr 10 22:40:50 2016, MaxMem=   33554432 cpu:       0.0
 (Enter /software/gaussian-09RevA.02-el6-x86_64/g09/l9999.exe)
 1\1\GINC-MIDWAY219\Freq\RCIS-FC\3-21G\H2O1\ROOT\10-Apr-2016\0\\#P Geom
 =AllCheck Guess=TCheck SCRF=Check GenChk RCIS(FC,Read)/3-21G Freq\\H20
  MCSCF/3-21G\\0,1\O,0.3057684574,0.,0.2346243894\H,-0.4258763219,0.,1.
 1884580278\H,1.0377373995,0.,-0.7189605101\\Version=EM64L-G09RevA.02\S
 tate=1-A1\HF=-75.4371103\RMSD=5.045e-10\RMSF=4.637e-06\ZeroPoint=0.005
 7631\Thermal=0.0093252\Dipole=0.0000728,0.,0.0000559\DipoleDeriv=1.515
 8869,0.,-2.2853816,0.,0.2377963,0.,-2.2853816,0.,2.7406192,-0.7577299,
 0.,1.1424525,0.,-0.1188981,0.,1.1428146,0.,-1.3705231,-0.758157,0.,1.1
 42929,0.,-0.1188981,0.,1.142567,0.,-1.370096\Polar=18.1285915,0.,1.287
 8687,-22.9466711,0.,30.4256755\PG=C02V [C2(O1),SGV(H2)]\NImag=1\\-0.16
 412675,0.,0.23945991,0.21482503,0.,-0.27925114,0.08207327,0.,-0.107367
 12,0.00058820,0.,-0.11972995,0.,0.,0.05986714,-0.10746321,0.,0.1396156
 7,-0.00054127,0.,0.00089949,0.08205348,0.,-0.10745791,-0.08266148,0.,0
 .10800449,0.00060800,0.,-0.11972995,0.,0.,0.05986281,0.,0.,0.05986714,
 -0.10736182,0.,0.13963547,0.10790840,0.,-0.14051516,-0.00054658,0.,0.0
 0087969\\-0.00000022,0.,-0.00000017,-0.00000588,0.,0.00000789,0.000006
 10,0.,-0.00000772\\\@


 In the beginning there was nothing, which exploded.
 Job cpu time:  0 days  0 hours  0 minutes  2.5 seconds.
 File lengths (MBytes):  RWF=    113 Int=      0 D2E=      0 Chk=      2 Scr=      2
 Normal termination of Gaussian 09 at Sun Apr 10 22:40:50 2016.
