 Entering Gaussian System, Link 0=g09
 Input=ch4scan.inp
 Output=ch4scan.log
 Initial command:
 /software/gaussian-09RevA.02-el6-x86_64/g09/l1.exe /home/ilariamerutka/scratch-midway/gaussian-work/Gau-27591.inp -scrdir=/home/ilariamerutka/scratch-midway/gaussian-work/
 Entering Link 1 = /software/gaussian-09RevA.02-el6-x86_64/g09/l1.exe PID=     27592.
  
 Copyright (c) 1988,1990,1992,1993,1995,1998,2003,2009, Gaussian, Inc.
                  All Rights Reserved.
  
 This is part of the Gaussian(R) 09 program.  It is based on
 the Gaussian(R) 03 system (copyright 2003, Gaussian, Inc.),
 the Gaussian(R) 98 system (copyright 1998, Gaussian, Inc.),
 the Gaussian(R) 94 system (copyright 1995, Gaussian, Inc.),
 the Gaussian 92(TM) system (copyright 1992, Gaussian, Inc.),
 the Gaussian 90(TM) system (copyright 1990, Gaussian, Inc.),
 the Gaussian 88(TM) system (copyright 1988, Gaussian, Inc.),
 the Gaussian 86(TM) system (copyright 1986, Carnegie Mellon
 University), and the Gaussian 82(TM) system (copyright 1983,
 Carnegie Mellon University). Gaussian is a federally registered
 trademark of Gaussian, Inc.
  
 This software contains proprietary and confidential information,
 including trade secrets, belonging to Gaussian, Inc.
  
 This software is provided under written license and may be
 used, copied, transmitted, or stored only in accord with that
 written license.
  
 The following legend is applicable only to US Government
 contracts under FAR:
  
                    RESTRICTED RIGHTS LEGEND
  
 Use, reproduction and disclosure by the US Government is
 subject to restrictions as set forth in subparagraphs (a)
 and (c) of the Commercial Computer Software - Restricted
 Rights clause in FAR 52.227-19.
  
 Gaussian, Inc.
 340 Quinnipiac St., Bldg. 40, Wallingford CT 06492
  
  
 ---------------------------------------------------------------
 Warning -- This program may not be used in any manner that
 competes with the business of Gaussian, Inc. or will provide
 assistance to any competitor of Gaussian, Inc.  The licensee
 of this program is prohibited from giving any competitor of
 Gaussian, Inc. access to this program.  By using this program,
 the user acknowledges that Gaussian, Inc. is engaged in the
 business of creating and licensing software in the field of
 computational chemistry and represents and warrants to the
 licensee that it is not a competitor of Gaussian, Inc. and that
 it will not use this program in any manner prohibited above.
 ---------------------------------------------------------------
  

 Cite this work as:
 Gaussian 09, Revision A.02,
 M. J. Frisch, G. W. Trucks, H. B. Schlegel, G. E. Scuseria, 
 M. A. Robb, J. R. Cheeseman, G. Scalmani, V. Barone, B. Mennucci, 
 G. A. Petersson, H. Nakatsuji, M. Caricato, X. Li, H. P. Hratchian, 
 A. F. Izmaylov, J. Bloino, G. Zheng, J. L. Sonnenberg, M. Hada, 
 M. Ehara, K. Toyota, R. Fukuda, J. Hasegawa, M. Ishida, T. Nakajima, 
 Y. Honda, O. Kitao, H. Nakai, T. Vreven, J. A. Montgomery, Jr., 
 J. E. Peralta, F. Ogliaro, M. Bearpark, J. J. Heyd, E. Brothers, 
 K. N. Kudin, V. N. Staroverov, R. Kobayashi, J. Normand, 
 K. Raghavachari, A. Rendell, J. C. Burant, S. S. Iyengar, J. Tomasi, 
 M. Cossi, N. Rega, J. M. Millam, M. Klene, J. E. Knox, J. B. Cross, 
 V. Bakken, C. Adamo, J. Jaramillo, R. Gomperts, R. E. Stratmann, 
 O. Yazyev, A. J. Austin, R. Cammi, C. Pomelli, J. W. Ochterski, 
 R. L. Martin, K. Morokuma, V. G. Zakrzewski, G. A. Voth, 
 P. Salvador, J. J. Dannenberg, S. Dapprich, A. D. Daniels, 
 O. Farkas, J. B. Foresman, J. V. Ortiz, J. Cioslowski, 
 and D. J. Fox, Gaussian, Inc., Wallingford CT, 2009.
 
 ******************************************
 Gaussian 09:  EM64L-G09RevA.02 11-Jun-2009
                10-Apr-2016 
 ******************************************
 -----------------
 #p uhf/6-31g scan
 -----------------
 1/38=1,60=1/1,8;
 2/12=2,17=6,18=5,29=3,40=1/2;
 3/5=1,6=6,11=2,16=1,25=1,30=1,116=2/1,2,3;
 4//1;
 5/5=2,38=5/2;
 6/7=2,8=2,9=2,10=2,18=1,28=1/1;
 1/60=1/8(1);
 99/9=1/99;
 2/29=3/2;
 3/5=1,6=6,11=2,16=1,25=1,30=1,116=2/1,2,3;
 4/5=5,16=3/1;
 5/5=2,38=5/2;
 1/60=1/8(-4);
 99/9=1/99;
 Leave Link    1 at Sun Apr 10 20:42:40 2016, MaxMem=          0 cpu:       0.0
 (Enter /software/gaussian-09RevA.02-el6-x86_64/g09/l101.exe)
 ------------
 CH4 C-H Scan
 ------------
 Symbolic Z-matrix:
 Charge =  0 Multiplicity = 1
 C
 H                    1    B1
 H                    1    B2       2    A1
 H                    1    B3       3    A2       2    D1       0
 H                    1    B4       4    A3       2    D2       0
       Variables:
  B1                    0.6    Scan 30    0.1    
  B2                    1.07                     
  B3                    1.07                     
  B4                    1.07                     
  A1                  109.47122                  
  A2                  109.47122                  
  A3                  109.47122                  
  D1                 -120.                       
  D2                 -120.                       
 
     3 tetrahedral angles replaced.
 NAtoms=      5 NQM=      5 NQMF=      0 NMic=      0 NMicF=      0 NTot=      5.
    3 tetrahedral angles replaced.
                    Isotopes and Nuclear Properties:
 (Nuclear quadrupole moments (NQMom) in fm**2, nuclear magnetic moments (NMagM)
  in nuclear magnetons)

  Atom         1           2           3           4           5
 IAtWgt=          12           1           1           1           1
 AtmWgt=  12.0000000   1.0078250   1.0078250   1.0078250   1.0078250
 NucSpn=           0           1           1           1           1
 AtZEff=   0.0000000   0.0000000   0.0000000   0.0000000   0.0000000
 NQMom=    0.0000000   0.0000000   0.0000000   0.0000000   0.0000000
 NMagM=    0.0000000   2.7928460   2.7928460   2.7928460   2.7928460
 Leave Link  101 at Sun Apr 10 20:42:40 2016, MaxMem=   33554432 cpu:       0.2
 (Enter /software/gaussian-09RevA.02-el6-x86_64/g09/l108.exe)
 Scan the potential surface.
 Variable   Value     No. Steps Step-Size
 -------- ----------- --------- ---------
     1       0.600000      30      0.1000
 A total of     31 points will be computed.
 Leave Link  108 at Sun Apr 10 20:42:40 2016, MaxMem=   33554432 cpu:       0.0
 (Enter /software/gaussian-09RevA.02-el6-x86_64/g09/l202.exe)
 ---------------------------------------------------------------------------------------------------
                            Z-MATRIX (ANGSTROMS AND DEGREES)
   CD    Cent   Atom    N1       Length/X        N2       Alpha/Y        N3        Beta/Z          J
 ---------------------------------------------------------------------------------------------------
      1      1  C 
      2      2  H        1   0.600000(     1)
      3      3  H        1   1.070000(     2)      2  109.471(     5)
      4      4  H        1   1.070000(     3)      3  109.471(     6)      2 -120.000(     8)      0
      5      5  H        1   1.070000(     4)      4  109.471(     7)      2 -120.000(     9)      0
 ---------------------------------------------------------------------------------------------------
                         Z-Matrix orientation:                         
 ---------------------------------------------------------------------
 Center     Atomic      Atomic             Coordinates (Angstroms)
 Number     Number       Type             X           Y           Z
 ---------------------------------------------------------------------
      1          6           0        0.000000    0.000000    0.000000
      2          1           0        0.000000    0.000000    0.600000
      3          1           0        1.008806    0.000000   -0.356667
      4          1           0       -0.504403   -0.873651   -0.356667
      5          1           0       -0.504403    0.873651   -0.356667
 ---------------------------------------------------------------------
                    Distance matrix (angstroms):
                    1          2          3          4          5
     1  C    0.000000
     2  H    0.600000   0.000000
     3  H    1.070000   1.390288   0.000000
     4  H    1.070000   1.390288   1.747303   0.000000
     5  H    1.070000   1.390288   1.747303   1.747303   0.000000
 Stoichiometry    CH4
 Framework group  C3V[C3(CH),3SGV(H)]
 Deg. of freedom     3
 Full point group                 C3V     NOp   6
 Largest Abelian subgroup         CS      NOp   2
 Largest concise Abelian subgroup CS      NOp   2
                         Standard orientation:                         
 ---------------------------------------------------------------------
 Center     Atomic      Atomic             Coordinates (Angstroms)
 Number     Number       Type             X           Y           Z
 ---------------------------------------------------------------------
      1          6           0        0.000000    0.000000    0.047000
      2          1           0        0.000000    0.000000    0.647000
      3          1           0        0.000000    1.008806   -0.309667
      4          1           0        0.873651   -0.504403   -0.309667
      5          1           0       -0.873651   -0.504403   -0.309667
 ---------------------------------------------------------------------
 Rotational constants (GHZ):    222.4458366    222.4458366    164.2463644
 Leave Link  202 at Sun Apr 10 20:42:40 2016, MaxMem=   33554432 cpu:       0.0
 (Enter /software/gaussian-09RevA.02-el6-x86_64/g09/l301.exe)
 Standard basis: 6-31G (6D, 7F)
 Ernie: Thresh=  0.10000D-02 Tol=  0.10000D-05 Strict=F.
 There are    13 symmetry adapted basis functions of A'  symmetry.
 There are     4 symmetry adapted basis functions of A"  symmetry.
 Integral buffers will be    131072 words long.
 Raffenetti 2 integral format.
 Two-electron integral symmetry is turned on.
    17 basis functions,    38 primitive gaussians,    17 cartesian basis functions
     5 alpha electrons        5 beta electrons
       nuclear repulsion energy        16.2442526092 Hartrees.
 IExCor=    0 DFT=F Ex=HF Corr=None ExCW=0 ScaHFX=  1.000000
 ScaDFX=  1.000000  1.000000  1.000000  1.000000 ScalE2=  1.000000  1.000000
 IRadAn=      0 IRanWt=     -1 IRanGd=            0 ICorTp=0
 NAtoms=    5 NActive=    5 NUniq=    3 SFac= 2.08D+00 NAtFMM=   80 NAOKFM=F Big=F
 Leave Link  301 at Sun Apr 10 20:42:40 2016, MaxMem=   33554432 cpu:       0.1
 (Enter /software/gaussian-09RevA.02-el6-x86_64/g09/l302.exe)
 NPDir=0 NMtPBC=     1 NCelOv=     1 NCel=       1 NClECP=     1 NCelD=      1
         NCelK=      1 NCelE2=     1 NClLst=     1 CellRange=     0.0.
 One-electron integrals computed using PRISM.
 One-electron integral symmetry used in STVInt
 NBasis=    17 RedAO= T  NBF=    13     4
 NBsUse=    17 1.00D-06 NBFU=    13     4
 Leave Link  302 at Sun Apr 10 20:42:40 2016, MaxMem=   33554432 cpu:       0.2
 (Enter /software/gaussian-09RevA.02-el6-x86_64/g09/l303.exe)
 DipDrv:  MaxL=1.
 Leave Link  303 at Sun Apr 10 20:42:40 2016, MaxMem=   33554432 cpu:       0.0
 (Enter /software/gaussian-09RevA.02-el6-x86_64/g09/l401.exe)
 Harris functional with IExCor=  205 diagonalized for initial guess.
 ExpMin= 1.61D-01 ExpMax= 3.05D+03 ExpMxC= 4.57D+02 IAcc=1 IRadAn=         1 AccDes= 0.00D+00
 HarFok:  IExCor=  205 AccDes= 0.00D+00 IRadAn=         1 IDoV= 1
 ScaDFX=  1.000000  1.000000  1.000000  1.000000
 FoFCou: FMM=F IPFlag=           0 FMFlag=      100000 FMFlg1=           0
         NFxFlg=           0 DoJE=T BraDBF=F KetDBF=T FulRan=T
         Omega=  0.000000  0.000000  1.000000  0.000000  0.000000 ICntrl=     500 IOpCl=  0
         NMat0=    1 NMatS0=    1 NMatT0=    0 NMatD0=    1 NMtDS0=    0 NMtDT0=    0
         I1Cent=           4 NGrid=           0.
 Petite list used in FoFCou.
 Harris En= -40.0045968553598    
 Initial guess orbital symmetries:
 Alpha Orbitals:
       Occupied  (A1) (A1) (A1) (E) (E)
       Virtual   (A1) (E) (E) (A1) (A1) (E) (E) (E) (E) (A1) (A1)
                 (A1)
 Beta  Orbitals:
       Occupied  (A1) (A1) (A1) (E) (E)
       Virtual   (A1) (E) (E) (A1) (A1) (E) (E) (E) (E) (A1) (A1)
                 (A1)
 The electronic state of the initial guess is 1-A1.
 Initial guess <Sx>= 0.0000 <Sy>= 0.0000 <Sz>= 0.0000 <S**2>= 0.0000 S= 0.0000
 Leave Link  401 at Sun Apr 10 20:42:40 2016, MaxMem=   33554432 cpu:       0.2
 (Enter /software/gaussian-09RevA.02-el6-x86_64/g09/l502.exe)
 UHF open shell SCF:
 Requested convergence on RMS density matrix=1.00D-08 within 128 cycles.
 Requested convergence on MAX density matrix=1.00D-06.
 Requested convergence on             energy=1.00D-06.
 No special actions if energy rises.
 Using DIIS extrapolation, IDIIS=  1040.
 Integral symmetry usage will be decided dynamically.
 Keep R1 and R2 ints in memory in canonical form, NReq=843414.
 IEnd=       19831 IEndB=       19831 NGot=    33554432 MDV=    33528114
 LenX=    33528114 LenY=    33527232
 Symmetry not used in FoFDir.
 MinBra= 0 MaxBra= 1 Meth= 1.
 IRaf=       0 NMat=   1 IRICut=       1 DoRegI=T DoRafI=F ISym2E= 0 JSym2E=0.

 Cycle   1  Pass 1  IDiag  1:
 E= -39.4504275415360    
 DIIS: error= 1.28D-01 at cycle   1 NSaved=   1.
 NSaved= 1 IEnMin= 1 EnMin= -39.4504275415360     IErMin= 1 ErrMin= 1.28D-01
 ErrMax= 1.28D-01 EMaxC= 1.00D-01 BMatC= 8.92D-01 BMatP= 8.92D-01
 IDIUse=3 WtCom= 0.00D+00 WtEn= 1.00D+00
 Coeff-Com:  0.100D+01
 Coeff-En:   0.100D+01
 Coeff:      0.100D+01
 Gap=     0.686 Goal=   None    Shift=    0.000
 Gap=     0.686 Goal=   None    Shift=    0.000
 GapD=    0.686 DampG=2.000 DampE=0.250 DampFc=0.5000 IDamp=-1.
 Damping current iteration by 5.00D-01
 RMSDP=3.27D-02 MaxDP=2.19D-01              OVMax= 2.14D-01

 Cycle   2  Pass 1  IDiag  1:
 E= -39.5870444147506     Delta-E=       -0.136616873215 Rises=F Damp=T
 DIIS: error= 4.37D-02 at cycle   2 NSaved=   2.
 NSaved= 2 IEnMin= 2 EnMin= -39.5870444147506     IErMin= 2 ErrMin= 4.37D-02
 ErrMax= 4.37D-02 EMaxC= 1.00D-01 BMatC= 1.02D-01 BMatP= 8.92D-01
 IDIUse=3 WtCom= 5.63D-01 WtEn= 4.37D-01
 Coeff-Com: -0.471D+00 0.147D+01
 Coeff-En:   0.000D+00 0.100D+01
 Coeff:     -0.265D+00 0.127D+01
 Gap=     0.796 Goal=   None    Shift=    0.000
 Gap=     0.796 Goal=   None    Shift=    0.000
 RMSDP=9.67D-03 MaxDP=7.26D-02 DE=-1.37D-01 OVMax= 4.10D-02

 Cycle   3  Pass 1  IDiag  1:
 E= -39.6974199841634     Delta-E=       -0.110375569413 Rises=F Damp=F
 DIIS: error= 4.86D-03 at cycle   3 NSaved=   3.
 NSaved= 3 IEnMin= 3 EnMin= -39.6974199841634     IErMin= 3 ErrMin= 4.86D-03
 ErrMax= 4.86D-03 EMaxC= 1.00D-01 BMatC= 3.20D-03 BMatP= 1.02D-01
 IDIUse=3 WtCom= 9.51D-01 WtEn= 4.86D-02
 Coeff-Com:  0.229D+00-0.506D+00 0.128D+01
 Coeff-En:   0.000D+00 0.000D+00 0.100D+01
 Coeff:      0.218D+00-0.481D+00 0.126D+01
 Gap=     0.814 Goal=   None    Shift=    0.000
 Gap=     0.814 Goal=   None    Shift=    0.000
 RMSDP=2.02D-03 MaxDP=1.05D-02 DE=-1.10D-01 OVMax= 9.77D-03

 Cycle   4  Pass 1  IDiag  1:
 E= -39.6981842069098     Delta-E=       -0.000764222746 Rises=F Damp=F
 DIIS: error= 4.17D-04 at cycle   4 NSaved=   4.
 NSaved= 4 IEnMin= 4 EnMin= -39.6981842069098     IErMin= 4 ErrMin= 4.17D-04
 ErrMax= 4.17D-04 EMaxC= 1.00D-01 BMatC= 1.35D-05 BMatP= 3.20D-03
 IDIUse=3 WtCom= 9.96D-01 WtEn= 4.17D-03
 Coeff-Com: -0.396D-01 0.844D-01-0.231D+00 0.119D+01
 Coeff-En:   0.000D+00 0.000D+00 0.000D+00 0.100D+01
 Coeff:     -0.395D-01 0.840D-01-0.230D+00 0.119D+01
 Gap=     0.813 Goal=   None    Shift=    0.000
 Gap=     0.813 Goal=   None    Shift=    0.000
 RMSDP=2.93D-04 MaxDP=9.55D-04 DE=-7.64D-04 OVMax= 1.12D-03

 Cycle   5  Pass 1  IDiag  1:
 E= -39.6981926216023     Delta-E=       -0.000008414693 Rises=F Damp=F
 DIIS: error= 9.96D-05 at cycle   5 NSaved=   5.
 NSaved= 5 IEnMin= 5 EnMin= -39.6981926216023     IErMin= 5 ErrMin= 9.96D-05
 ErrMax= 9.96D-05 EMaxC= 1.00D-01 BMatC= 6.79D-07 BMatP= 1.35D-05
 IDIUse=1 WtCom= 1.00D+00 WtEn= 0.00D+00
 Coeff-Com: -0.452D-03 0.115D-02-0.869D-02-0.229D+00 0.124D+01
 Coeff:     -0.452D-03 0.115D-02-0.869D-02-0.229D+00 0.124D+01
 Gap=     0.813 Goal=   None    Shift=    0.000
 Gap=     0.813 Goal=   None    Shift=    0.000
 RMSDP=7.57D-05 MaxDP=2.70D-04 DE=-8.41D-06 OVMax= 3.38D-04

 Cycle   6  Pass 1  IDiag  1:
 E= -39.6981930371493     Delta-E=       -0.000000415547 Rises=F Damp=F
 DIIS: error= 4.35D-06 at cycle   6 NSaved=   6.
 NSaved= 6 IEnMin= 6 EnMin= -39.6981930371493     IErMin= 6 ErrMin= 4.35D-06
 ErrMax= 4.35D-06 EMaxC= 1.00D-01 BMatC= 2.29D-09 BMatP= 6.79D-07
 IDIUse=1 WtCom= 1.00D+00 WtEn= 0.00D+00
 Coeff-Com: -0.117D-03 0.227D-03 0.140D-02 0.602D-01-0.333D+00 0.127D+01
 Coeff:     -0.117D-03 0.227D-03 0.140D-02 0.602D-01-0.333D+00 0.127D+01
 Gap=     0.813 Goal=   None    Shift=    0.000
 Gap=     0.813 Goal=   None    Shift=    0.000
 RMSDP=3.13D-06 MaxDP=1.38D-05 DE=-4.16D-07 OVMax= 1.80D-05

 Cycle   7  Pass 1  IDiag  1:
 E= -39.6981930381961     Delta-E=       -0.000000001047 Rises=F Damp=F
 DIIS: error= 6.21D-07 at cycle   7 NSaved=   7.
 NSaved= 7 IEnMin= 7 EnMin= -39.6981930381961     IErMin= 7 ErrMin= 6.21D-07
 ErrMax= 6.21D-07 EMaxC= 1.00D-01 BMatC= 2.58D-11 BMatP= 2.29D-09
 IDIUse=1 WtCom= 1.00D+00 WtEn= 0.00D+00
 Coeff-Com:  0.154D-05 0.993D-06-0.439D-03-0.126D-01 0.722D-01-0.337D+00
 Coeff-Com:  0.128D+01
 Coeff:      0.154D-05 0.993D-06-0.439D-03-0.126D-01 0.722D-01-0.337D+00
 Coeff:      0.128D+01
 Gap=     0.813 Goal=   None    Shift=    0.000
 Gap=     0.813 Goal=   None    Shift=    0.000
 RMSDP=4.03D-07 MaxDP=1.55D-06 DE=-1.05D-09 OVMax= 2.09D-06

 Cycle   8  Pass 1  IDiag  1:
 E= -39.6981930382105     Delta-E=       -0.000000000014 Rises=F Damp=F
 DIIS: error= 4.07D-08 at cycle   8 NSaved=   8.
 NSaved= 8 IEnMin= 8 EnMin= -39.6981930382105     IErMin= 8 ErrMin= 4.07D-08
 ErrMax= 4.07D-08 EMaxC= 1.00D-01 BMatC= 1.21D-13 BMatP= 2.58D-11
 IDIUse=1 WtCom= 1.00D+00 WtEn= 0.00D+00
 Coeff-Com: -0.576D-08-0.353D-06 0.512D-04 0.145D-02-0.835D-02 0.414D-01
 Coeff-Com: -0.206D+00 0.117D+01
 Coeff:     -0.576D-08-0.353D-06 0.512D-04 0.145D-02-0.835D-02 0.414D-01
 Coeff:     -0.206D+00 0.117D+01
 Gap=     0.813 Goal=   None    Shift=    0.000
 Gap=     0.813 Goal=   None    Shift=    0.000
 RMSDP=3.98D-08 MaxDP=2.26D-07 DE=-1.44D-11 OVMax= 1.55D-07

 Cycle   9  Pass 1  IDiag  1:
 E= -39.6981930382105     Delta-E=        0.000000000000 Rises=F Damp=F
 DIIS: error= 3.19D-09 at cycle   9 NSaved=   9.
 NSaved= 9 IEnMin= 9 EnMin= -39.6981930382105     IErMin= 9 ErrMin= 3.19D-09
 ErrMax= 3.19D-09 EMaxC= 1.00D-01 BMatC= 8.28D-16 BMatP= 1.21D-13
 IDIUse=1 WtCom= 1.00D+00 WtEn= 0.00D+00
 Coeff-Com:  0.266D-08 0.367D-07-0.819D-05-0.236D-03 0.136D-02-0.673D-02
 Coeff-Com:  0.354D-01-0.241D+00 0.121D+01
 Coeff:      0.266D-08 0.367D-07-0.819D-05-0.236D-03 0.136D-02-0.673D-02
 Coeff:      0.354D-01-0.241D+00 0.121D+01
 Gap=     0.813 Goal=   None    Shift=    0.000
 Gap=     0.813 Goal=   None    Shift=    0.000
 RMSDP=3.23D-09 MaxDP=2.82D-08 DE=-5.68D-14 OVMax= 1.35D-08

 SCF Done:  E(UHF) =  -39.6981930382     A.U. after    9 cycles
             Convg  =    0.3226D-08             -V/T =  1.9530
 <Sx>= 0.0000 <Sy>= 0.0000 <Sz>= 0.0000 <S**2>= 0.0000 S= 0.0000
 <L.S>= 0.000000000000E+00
 KE= 4.165726052501D+01 PE=-1.256002014799D+02 EE= 2.800049530748D+01
 Annihilation of the first spin contaminant:
 S**2 before annihilation     0.0000,   after     0.0000
 Leave Link  502 at Sun Apr 10 20:42:41 2016, MaxMem=   33554432 cpu:       0.1
 (Enter /software/gaussian-09RevA.02-el6-x86_64/g09/l601.exe)
 Copying SCF densities to generalized density rwf, IOpCl= 1 IROHF=0.

 **********************************************************************

            Population analysis using the SCF density.

 **********************************************************************

 Orbital symmetries:
 Alpha Orbitals:
       Occupied  (A1) (A1) (A1) (E) (E)
       Virtual   (A1) (E) (E) (A1) (A1) (E) (E) (E) (E) (A1) (A1)
                 (A1)
 Beta  Orbitals:
       Occupied  (A1) (A1) (A1) (E) (E)
       Virtual   (A1) (E) (E) (A1) (A1) (E) (E) (E) (E) (A1) (A1)
                 (A1)
 The electronic state is 1-A1.
 Alpha  occ. eigenvalues --  -11.18947  -1.04191  -0.64504  -0.54727  -0.54727
 Alpha virt. eigenvalues --    0.26573   0.32923   0.32923   0.40186   0.60266
 Alpha virt. eigenvalues --    0.74322   0.74322   1.23926   1.23926   1.27058
 Alpha virt. eigenvalues --    1.38651   2.42455
  Beta  occ. eigenvalues --  -11.18947  -1.04191  -0.64504  -0.54727  -0.54727
  Beta virt. eigenvalues --    0.26573   0.32923   0.32923   0.40186   0.60266
  Beta virt. eigenvalues --    0.74322   0.74322   1.23926   1.23926   1.27058
  Beta virt. eigenvalues --    1.38651   2.42455
          Condensed to atoms (all electrons):
              1          2          3          4          5
     1  C    4.908981   0.326387   0.412730   0.412730   0.412730
     2  H    0.326387   0.759272  -0.048518  -0.048518  -0.048518
     3  H    0.412730  -0.048518   0.551171  -0.026635  -0.026635
     4  H    0.412730  -0.048518  -0.026635   0.551171  -0.026635
     5  H    0.412730  -0.048518  -0.026635  -0.026635   0.551171
 Mulliken atomic charges:
              1
     1  C   -0.473558
     2  H    0.059895
     3  H    0.137888
     4  H    0.137888
     5  H    0.137888
 Sum of Mulliken atomic charges =   0.00000
 Mulliken charges with hydrogens summed into heavy atoms:
              1
     1  C    0.000000
 Sum of Mulliken charges with hydrogens summed into heavy atoms =   0.00000
          Atomic-Atomic Spin Densities.
              1          2          3          4          5
     1  C    0.000000   0.000000   0.000000   0.000000   0.000000
     2  H    0.000000   0.000000   0.000000   0.000000   0.000000
     3  H    0.000000   0.000000   0.000000   0.000000   0.000000
     4  H    0.000000   0.000000   0.000000   0.000000   0.000000
     5  H    0.000000   0.000000   0.000000   0.000000   0.000000
 Mulliken atomic spin densities:
              1
     1  C    0.000000
     2  H    0.000000
     3  H    0.000000
     4  H    0.000000
     5  H    0.000000
 Sum of Mulliken atomic spin densities =   0.00000
 Electronic spatial extent (au):  <R**2>=             30.9949
 Charge=              0.0000 electrons
 Dipole moment (field-independent basis, Debye):
    X=              0.0000    Y=              0.0000    Z=              0.0433  Tot=              0.0433
 Quadrupole moment (field-independent basis, Debye-Ang):
   XX=             -7.7591   YY=             -7.7591   ZZ=             -8.0505
   XY=              0.0000   XZ=              0.0000   YZ=              0.0000
 Traceless Quadrupole moment (field-independent basis, Debye-Ang):
   XX=              0.0971   YY=              0.0971   ZZ=             -0.1943
   XY=              0.0000   XZ=              0.0000   YZ=              0.0000
 Octapole moment (field-independent basis, Debye-Ang**2):
  XXX=              0.0000  YYY=              0.4679  ZZZ=              0.9335  XYY=              0.0000
  XXY=             -0.4679  XXZ=              0.0712  XZZ=              0.0000  YZZ=              0.0000
  YYZ=              0.0712  XYZ=              0.0000
 Hexadecapole moment (field-independent basis, Debye-Ang**3):
 XXXX=            -14.1988 YYYY=            -14.1988 ZZZZ=             -9.6606 XXXY=              0.0000
 XXXZ=              0.0000 YYYX=              0.0000 YYYZ=             -0.2520 ZZZX=              0.0000
 ZZZY=              0.0000 XXYY=             -4.7329 XXZZ=             -3.9879 YYZZ=             -3.9879
 XXYZ=              0.2520 YYXZ=              0.0000 ZZXY=              0.0000
 N-N= 1.624425260924D+01 E-N=-1.884003022002D+02  KE= 6.248589078751D+01
 Symmetry A'   KE= 5.955926454514D+01
 Symmetry A"   KE= 2.926626242377D+00
                          Isotropic Fermi Contact Couplings
        Atom                 a.u.       MegaHertz       Gauss      10(-4) cm-1
     1  C(13)              0.00000       0.00000       0.00000       0.00000
     2  H(1)               0.00000       0.00000       0.00000       0.00000
     3  H(1)               0.00000       0.00000       0.00000       0.00000
     4  H(1)               0.00000       0.00000       0.00000       0.00000
     5  H(1)               0.00000       0.00000       0.00000       0.00000
 --------------------------------------------------------
       Center         ----  Spin Dipole Couplings  ----
                      3XX-RR        3YY-RR        3ZZ-RR
 --------------------------------------------------------
     1   Atom        0.000000      0.000000      0.000000
     2   Atom        0.000000      0.000000      0.000000
     3   Atom        0.000000      0.000000      0.000000
     4   Atom        0.000000      0.000000      0.000000
     5   Atom        0.000000      0.000000      0.000000
 --------------------------------------------------------
                        XY            XZ            YZ
 --------------------------------------------------------
     1   Atom        0.000000      0.000000      0.000000
     2   Atom        0.000000      0.000000      0.000000
     3   Atom        0.000000      0.000000      0.000000
     4   Atom        0.000000      0.000000      0.000000
     5   Atom        0.000000      0.000000      0.000000
 --------------------------------------------------------


 ---------------------------------------------------------------------------------
              Anisotropic Spin Dipole Couplings in Principal Axis System
 ---------------------------------------------------------------------------------

       Atom             a.u.   MegaHertz   Gauss  10(-4) cm-1        Axes

              Baa     0.0000     0.000     0.000     0.000  1.0000  0.0000  0.0000
     1 C(13)  Bbb     0.0000     0.000     0.000     0.000  0.0000  1.0000  0.0000
              Bcc     0.0000     0.000     0.000     0.000  0.0000  0.0000  1.0000
 
              Baa     0.0000     0.000     0.000     0.000  1.0000  0.0000  0.0000
     2 H(1)   Bbb     0.0000     0.000     0.000     0.000  0.0000  1.0000  0.0000
              Bcc     0.0000     0.000     0.000     0.000  0.0000  0.0000  1.0000
 
              Baa     0.0000     0.000     0.000     0.000  1.0000  0.0000  0.0000
     3 H(1)   Bbb     0.0000     0.000     0.000     0.000  0.0000  1.0000  0.0000
              Bcc     0.0000     0.000     0.000     0.000  0.0000  0.0000  1.0000
 
              Baa     0.0000     0.000     0.000     0.000  1.0000  0.0000  0.0000
     4 H(1)   Bbb     0.0000     0.000     0.000     0.000  0.0000  1.0000  0.0000
              Bcc     0.0000     0.000     0.000     0.000  0.0000  0.0000  1.0000
 
              Baa     0.0000     0.000     0.000     0.000  1.0000  0.0000  0.0000
     5 H(1)   Bbb     0.0000     0.000     0.000     0.000  0.0000  1.0000  0.0000
              Bcc     0.0000     0.000     0.000     0.000  0.0000  0.0000  1.0000
 

 ---------------------------------------------------------------------------------

 No NMR shielding tensors so no spin-rotation constants.
 Leave Link  601 at Sun Apr 10 20:42:41 2016, MaxMem=   33554432 cpu:       0.1
 (Enter /software/gaussian-09RevA.02-el6-x86_64/g09/l108.exe)
 Variable Step   Value    
 -------- ---- -----------
     1       1    1.322808
 Leave Link  108 at Sun Apr 10 20:42:41 2016, MaxMem=   33554432 cpu:       0.0
 (Enter /software/gaussian-09RevA.02-el6-x86_64/g09/l202.exe)
 ---------------------------------------------------------------------------------------------------
                            Z-MATRIX (ANGSTROMS AND DEGREES)
   CD    Cent   Atom    N1       Length/X        N2       Alpha/Y        N3        Beta/Z          J
 ---------------------------------------------------------------------------------------------------
      1      1  C 
      2      2  H        1   0.700000(     1)
      3      3  H        1   1.070000(     2)      2  109.471(     5)
      4      4  H        1   1.070000(     3)      3  109.471(     6)      2 -120.000(     8)      0
      5      5  H        1   1.070000(     4)      4  109.471(     7)      2 -120.000(     9)      0
 ---------------------------------------------------------------------------------------------------
                         Z-Matrix orientation:                         
 ---------------------------------------------------------------------
 Center     Atomic      Atomic             Coordinates (Angstroms)
 Number     Number       Type             X           Y           Z
 ---------------------------------------------------------------------
      1          6           0        0.000000    0.000000    0.000000
      2          1           0        0.000000    0.000000    0.700000
      3          1           0        1.008806    0.000000   -0.356667
      4          1           0       -0.504403   -0.873651   -0.356667
      5          1           0       -0.504403    0.873651   -0.356667
 ---------------------------------------------------------------------
                    Distance matrix (angstroms):
                    1          2          3          4          5
     1  C    0.000000
     2  H    0.700000   0.000000
     3  H    1.070000   1.460902   0.000000
     4  H    1.070000   1.460902   1.747303   0.000000
     5  H    1.070000   1.460902   1.747303   1.747303   0.000000
 Stoichiometry    CH4
 Framework group  C3V[C3(CH),3SGV(H)]
 Deg. of freedom     3
 Full point group                 C3V     NOp   6
 Largest Abelian subgroup         CS      NOp   2
 Largest concise Abelian subgroup CS      NOp   2
                         Standard orientation:                         
 ---------------------------------------------------------------------
 Center     Atomic      Atomic             Coordinates (Angstroms)
 Number     Number       Type             X           Y           Z
 ---------------------------------------------------------------------
      1          6           0        0.000000    0.000000    0.037000
      2          1           0        0.000000    0.000000    0.737000
      3          1           0        0.000000    1.008806   -0.319667
      4          1           0        0.873651   -0.504403   -0.319667
      5          1           0       -0.873651   -0.504403   -0.319667
 ---------------------------------------------------------------------
 Rotational constants (GHZ):    209.8524571    209.8524571    164.2463644
 Leave Link  202 at Sun Apr 10 20:42:41 2016, MaxMem=   33554432 cpu:       0.0
 (Enter /software/gaussian-09RevA.02-el6-x86_64/g09/l301.exe)
 Standard basis: 6-31G (6D, 7F)
 Ernie: Thresh=  0.10000D-02 Tol=  0.10000D-05 Strict=F.
 There are    13 symmetry adapted basis functions of A'  symmetry.
 There are     4 symmetry adapted basis functions of A"  symmetry.
 Integral buffers will be    131072 words long.
 Raffenetti 2 integral format.
 Two-electron integral symmetry is turned on.
    17 basis functions,    38 primitive gaussians,    17 cartesian basis functions
     5 alpha electrons        5 beta electrons
       nuclear repulsion energy        15.4330918664 Hartrees.
 IExCor=    0 DFT=F Ex=HF Corr=None ExCW=0 ScaHFX=  1.000000
 ScaDFX=  1.000000  1.000000  1.000000  1.000000 ScalE2=  1.000000  1.000000
 IRadAn=      0 IRanWt=     -1 IRanGd=            0 ICorTp=0
 NAtoms=    5 NActive=    5 NUniq=    3 SFac= 2.08D+00 NAtFMM=   80 NAOKFM=F Big=F
 Leave Link  301 at Sun Apr 10 20:42:41 2016, MaxMem=   33554432 cpu:       0.1
 (Enter /software/gaussian-09RevA.02-el6-x86_64/g09/l302.exe)
 NPDir=0 NMtPBC=     1 NCelOv=     1 NCel=       1 NClECP=     1 NCelD=      1
         NCelK=      1 NCelE2=     1 NClLst=     1 CellRange=     0.0.
 One-electron integrals computed using PRISM.
 One-electron integral symmetry used in STVInt
 NBasis=    17 RedAO= T  NBF=    13     4
 NBsUse=    17 1.00D-06 NBFU=    13     4
 Leave Link  302 at Sun Apr 10 20:42:41 2016, MaxMem=   33554432 cpu:       0.2
 (Enter /software/gaussian-09RevA.02-el6-x86_64/g09/l303.exe)
 DipDrv:  MaxL=1.
 Leave Link  303 at Sun Apr 10 20:42:41 2016, MaxMem=   33554432 cpu:       0.1
 (Enter /software/gaussian-09RevA.02-el6-x86_64/g09/l401.exe)
 Initial guess read from the read-write file.
 B after Tr=     0.000000    0.000000    0.000000
         Rot=    1.000000    0.000000    0.000000    0.000000 Ang=   0.00 deg.
 Guess basis will be translated and rotated to current coordinates.
 Initial guess orbital symmetries:
 Alpha Orbitals:
       Occupied  (A1) (A1) (A1) (E) (E)
       Virtual   (A1) (E) (E) (A1) (A1) (E) (E) (E) (E) (A1) (A1)
                 (A1)
 Beta  Orbitals:
       Occupied  (A1) (A1) (A1) (E) (E)
       Virtual   (A1) (E) (E) (A1) (A1) (E) (E) (E) (E) (A1) (A1)
                 (A1)
 The electronic state of the initial guess is 1-A1.
 Initial guess <Sx>= 0.0000 <Sy>= 0.0000 <Sz>= 0.0000 <S**2>= 0.0000 S= 0.0000
 Generating alternative initial guess.
 Harris functional with IExCor=  205 diagonalized for initial guess.
 ExpMin= 1.61D-01 ExpMax= 3.05D+03 ExpMxC= 4.57D+02 IAcc=1 IRadAn=         1 AccDes= 0.00D+00
 HarFok:  IExCor=  205 AccDes= 0.00D+00 IRadAn=         1 IDoV= 1
 ScaDFX=  1.000000  1.000000  1.000000  1.000000
 FoFCou: FMM=F IPFlag=           0 FMFlag=      100000 FMFlg1=           0
         NFxFlg=           0 DoJE=T BraDBF=F KetDBF=T FulRan=T
         Omega=  0.000000  0.000000  1.000000  0.000000  0.000000 ICntrl=     500 IOpCl=  0
         NMat0=    1 NMatS0=    1 NMatT0=    0 NMatD0=    1 NMtDS0=    0 NMtDT0=    0
         I1Cent=           4 NGrid=           0.
 Petite list used in FoFCou.
 Harris En= -40.2132400036972    
 Leave Link  401 at Sun Apr 10 20:42:42 2016, MaxMem=   33554432 cpu:       0.3
 (Enter /software/gaussian-09RevA.02-el6-x86_64/g09/l502.exe)
 UHF open shell SCF:
 Requested convergence on RMS density matrix=1.00D-08 within 128 cycles.
 Requested convergence on MAX density matrix=1.00D-06.
 Requested convergence on             energy=1.00D-06.
 No special actions if energy rises.
 Using DIIS extrapolation, IDIIS=  1040.
 Integral symmetry usage will be decided dynamically.
 Keep R1 and R2 ints in memory in canonical form, NReq=843414.
 IEnd=       19831 IEndB=       19831 NGot=    33554432 MDV=    33528114
 LenX=    33528114 LenY=    33527232
 Symmetry not used in FoFDir.
 MinBra= 0 MaxBra= 1 Meth= 1.
 IRaf=       0 NMat=   1 IRICut=       1 DoRegI=T DoRafI=F ISym2E= 0 JSym2E=0.

 Cycle   1  Pass 1  IDiag  1:
 E= -39.9463245648846    
 DIIS: error= 1.04D-02 at cycle   1 NSaved=   1.
 NSaved= 1 IEnMin= 1 EnMin= -39.9463245648846     IErMin= 1 ErrMin= 1.04D-02
 ErrMax= 1.04D-02 EMaxC= 1.00D-01 BMatC= 8.95D-03 BMatP= 8.95D-03
 IDIUse=3 WtCom= 8.96D-01 WtEn= 1.04D-01
 Coeff-Com:  0.100D+01
 Coeff-En:   0.100D+01
 Coeff:      0.100D+01
 Recover alternate guess density for next cycle.
 RMSDP=2.06D-02 MaxDP=1.48D-01              OVMax= 0.00D+00

 Cycle   2  Pass 1  IDiag  1:
 E= -39.7442808534634     Delta-E=        0.202043711421 Rises=F Damp=F
 Switch densities from cycles 1 and 2 for lowest energy.
 DIIS: error= 1.16D-01 at cycle   2 NSaved=   2.
 NSaved= 2 IEnMin= 1 EnMin= -39.9463245648846     IErMin= 1 ErrMin= 1.04D-02
 ErrMax= 1.16D-01 EMaxC= 1.00D+00 BMatC= 7.56D-01 BMatP= 8.95D-03
 IDIUse=1 WtCom= 1.00D+00 WtEn= 0.00D+00
 Coeff-Com:  0.105D+01-0.463D-01
 Coeff:      0.105D+01-0.463D-01
 Gap=     0.814 Goal=   None    Shift=    0.000
 Gap=     0.814 Goal=   None    Shift=    0.000
 RMSDP=7.88D-02 MaxDP=1.05D+00 DE= 2.02D-01 OVMax= 1.68D-02

 Cycle   3  Pass 1  IDiag  1:
 E= -39.9489305331846     Delta-E=       -0.204649679721 Rises=F Damp=F
 DIIS: error= 1.47D-03 at cycle   3 NSaved=   3.
 NSaved= 3 IEnMin= 3 EnMin= -39.9489305331846     IErMin= 3 ErrMin= 1.47D-03
 ErrMax= 1.47D-03 EMaxC= 1.00D+00 BMatC= 2.50D-04 BMatP= 8.95D-03
 IDIUse=1 WtCom= 1.00D+00 WtEn= 0.00D+00
 Coeff-Com: -0.151D+00 0.147D-01 0.114D+01
 Coeff:     -0.151D+00 0.147D-01 0.114D+01
 Gap=     0.811 Goal=   None    Shift=    0.000
 Gap=     0.811 Goal=   None    Shift=    0.000
 RMSDP=9.60D-04 MaxDP=4.22D-03 DE=-2.05D-01 OVMax= 3.09D-03

 Cycle   4  Pass 1  IDiag  1:
 E= -39.9490320235401     Delta-E=       -0.000101490355 Rises=F Damp=F
 DIIS: error= 3.53D-04 at cycle   4 NSaved=   4.
 NSaved= 4 IEnMin= 4 EnMin= -39.9490320235401     IErMin= 4 ErrMin= 3.53D-04
 ErrMax= 3.53D-04 EMaxC= 1.00D+00 BMatC= 6.67D-06 BMatP= 2.50D-04
 IDIUse=1 WtCom= 1.00D+00 WtEn= 0.00D+00
 Coeff-Com:  0.248D-01-0.311D-02-0.279D+00 0.126D+01
 Coeff:      0.248D-01-0.311D-02-0.279D+00 0.126D+01
 Gap=     0.811 Goal=   None    Shift=    0.000
 Gap=     0.811 Goal=   None    Shift=    0.000
 RMSDP=1.48D-04 MaxDP=8.82D-04 DE=-1.01D-04 OVMax= 9.13D-04

 Cycle   5  Pass 1  IDiag  1:
 E= -39.9490356753293     Delta-E=       -0.000003651789 Rises=F Damp=F
 DIIS: error= 4.83D-05 at cycle   5 NSaved=   5.
 NSaved= 5 IEnMin= 5 EnMin= -39.9490356753293     IErMin= 5 ErrMin= 4.83D-05
 ErrMax= 4.83D-05 EMaxC= 1.00D+00 BMatC= 1.26D-07 BMatP= 6.67D-06
 IDIUse=1 WtCom= 1.00D+00 WtEn= 0.00D+00
 Coeff-Com: -0.531D-02 0.665D-03 0.646D-01-0.372D+00 0.131D+01
 Coeff:     -0.531D-02 0.665D-03 0.646D-01-0.372D+00 0.131D+01
 Gap=     0.811 Goal=   None    Shift=    0.000
 Gap=     0.811 Goal=   None    Shift=    0.000
 RMSDP=2.63D-05 MaxDP=1.30D-04 DE=-3.65D-06 OVMax= 1.56D-04

 Cycle   6  Pass 1  IDiag  1:
 E= -39.9490357519595     Delta-E=       -0.000000076630 Rises=F Damp=F
 DIIS: error= 3.49D-06 at cycle   6 NSaved=   6.
 NSaved= 6 IEnMin= 6 EnMin= -39.9490357519595     IErMin= 6 ErrMin= 3.49D-06
 ErrMax= 3.49D-06 EMaxC= 1.00D+00 BMatC= 8.34D-10 BMatP= 1.26D-07
 IDIUse=1 WtCom= 1.00D+00 WtEn= 0.00D+00
 Coeff-Com:  0.677D-03-0.797D-04-0.824D-02 0.510D-01-0.234D+00 0.119D+01
 Coeff:      0.677D-03-0.797D-04-0.824D-02 0.510D-01-0.234D+00 0.119D+01
 Gap=     0.811 Goal=   None    Shift=    0.000
 Gap=     0.811 Goal=   None    Shift=    0.000
 RMSDP=2.06D-06 MaxDP=9.23D-06 DE=-7.66D-08 OVMax= 8.74D-06

 Cycle   7  Pass 1  IDiag  1:
 E= -39.9490357523915     Delta-E=       -0.000000000432 Rises=F Damp=F
 DIIS: error= 3.37D-07 at cycle   7 NSaved=   7.
 NSaved= 7 IEnMin= 7 EnMin= -39.9490357523915     IErMin= 7 ErrMin= 3.37D-07
 ErrMax= 3.37D-07 EMaxC= 1.00D+00 BMatC= 8.18D-12 BMatP= 8.34D-10
 IDIUse=1 WtCom= 1.00D+00 WtEn= 0.00D+00
 Coeff-Com: -0.999D-04 0.110D-04 0.112D-02-0.633D-02 0.291D-01-0.193D+00
 Coeff-Com:  0.117D+01
 Coeff:     -0.999D-04 0.110D-04 0.112D-02-0.633D-02 0.291D-01-0.193D+00
 Coeff:      0.117D+01
 Gap=     0.811 Goal=   None    Shift=    0.000
 Gap=     0.811 Goal=   None    Shift=    0.000
 RMSDP=2.05D-07 MaxDP=1.18D-06 DE=-4.32D-10 OVMax= 1.05D-06

 Cycle   8  Pass 1  IDiag  1:
 E= -39.9490357523958     Delta-E=       -0.000000000004 Rises=F Damp=F
 DIIS: error= 4.74D-08 at cycle   8 NSaved=   8.
 NSaved= 8 IEnMin= 8 EnMin= -39.9490357523958     IErMin= 8 ErrMin= 4.74D-08
 ErrMax= 4.74D-08 EMaxC= 1.00D+00 BMatC= 1.48D-13 BMatP= 8.18D-12
 IDIUse=1 WtCom= 1.00D+00 WtEn= 0.00D+00
 Coeff-Com:  0.377D-05-0.150D-06-0.344D-04 0.132D-03-0.693D-03 0.118D-01
 Coeff-Com: -0.186D+00 0.117D+01
 Coeff:      0.377D-05-0.150D-06-0.344D-04 0.132D-03-0.693D-03 0.118D-01
 Coeff:     -0.186D+00 0.117D+01
 Gap=     0.811 Goal=   None    Shift=    0.000
 Gap=     0.811 Goal=   None    Shift=    0.000
 RMSDP=4.22D-08 MaxDP=2.65D-07 DE=-4.25D-12 OVMax= 1.84D-07

 Cycle   9  Pass 1  IDiag  1:
 E= -39.9490357523958     Delta-E=        0.000000000000 Rises=F Damp=F
 DIIS: error= 6.16D-09 at cycle   9 NSaved=   9.
 NSaved= 9 IEnMin= 9 EnMin= -39.9490357523958     IErMin= 9 ErrMin= 6.16D-09
 ErrMax= 6.16D-09 EMaxC= 1.00D+00 BMatC= 2.50D-15 BMatP= 1.48D-13
 IDIUse=1 WtCom= 1.00D+00 WtEn= 0.00D+00
 Coeff-Com:  0.169D-07-0.734D-07-0.208D-05 0.299D-04-0.134D-03-0.102D-02
 Coeff-Com:  0.384D-01-0.335D+00 0.130D+01
 Coeff:      0.169D-07-0.734D-07-0.208D-05 0.299D-04-0.134D-03-0.102D-02
 Coeff:      0.384D-01-0.335D+00 0.130D+01
 Gap=     0.811 Goal=   None    Shift=    0.000
 Gap=     0.811 Goal=   None    Shift=    0.000
 RMSDP=6.11D-09 MaxDP=3.69D-08 DE=-6.39D-14 OVMax= 2.87D-08

 SCF Done:  E(UHF) =  -39.9490357524     A.U. after    9 cycles
             Convg  =    0.6113D-08             -V/T =  1.9690
 <Sx>= 0.0000 <Sy>= 0.0000 <Sz>= 0.0000 <S**2>= 0.0000 S= 0.0000
 <L.S>= 0.000000000000E+00
 KE= 4.122796218618D+01 PE=-1.241673471526D+02 EE= 2.755725734755D+01
 Annihilation of the first spin contaminant:
 S**2 before annihilation     0.0000,   after     0.0000
 Leave Link  502 at Sun Apr 10 20:42:42 2016, MaxMem=   33554432 cpu:       0.1
 (Enter /software/gaussian-09RevA.02-el6-x86_64/g09/l108.exe)
 Variable Step   Value    
 -------- ---- -----------
     1       2    1.511781
 Leave Link  108 at Sun Apr 10 20:42:42 2016, MaxMem=   33554432 cpu:       0.0
 (Enter /software/gaussian-09RevA.02-el6-x86_64/g09/l202.exe)
 ---------------------------------------------------------------------------------------------------
                            Z-MATRIX (ANGSTROMS AND DEGREES)
   CD    Cent   Atom    N1       Length/X        N2       Alpha/Y        N3        Beta/Z          J
 ---------------------------------------------------------------------------------------------------
      1      1  C 
      2      2  H        1   0.800000(     1)
      3      3  H        1   1.070000(     2)      2  109.471(     5)
      4      4  H        1   1.070000(     3)      3  109.471(     6)      2 -120.000(     8)      0
      5      5  H        1   1.070000(     4)      4  109.471(     7)      2 -120.000(     9)      0
 ---------------------------------------------------------------------------------------------------
                         Z-Matrix orientation:                         
 ---------------------------------------------------------------------
 Center     Atomic      Atomic             Coordinates (Angstroms)
 Number     Number       Type             X           Y           Z
 ---------------------------------------------------------------------
      1          6           0        0.000000    0.000000    0.000000
      2          1           0        0.000000    0.000000    0.800000
      3          1           0        1.008806    0.000000   -0.356667
      4          1           0       -0.504403   -0.873651   -0.356667
      5          1           0       -0.504403    0.873651   -0.356667
 ---------------------------------------------------------------------
                    Distance matrix (angstroms):
                    1          2          3          4          5
     1  C    0.000000
     2  H    0.800000   0.000000
     3  H    1.070000   1.534786   0.000000
     4  H    1.070000   1.534786   1.747303   0.000000
     5  H    1.070000   1.534786   1.747303   1.747303   0.000000
 Stoichiometry    CH4
 Framework group  C3V[C3(CH),3SGV(H)]
 Deg. of freedom     3
 Full point group                 C3V     NOp   6
 Largest Abelian subgroup         CS      NOp   2
 Largest concise Abelian subgroup CS      NOp   2
                         Standard orientation:                         
 ---------------------------------------------------------------------
 Center     Atomic      Atomic             Coordinates (Angstroms)
 Number     Number       Type             X           Y           Z
 ---------------------------------------------------------------------
      1          6           0        0.000000    0.000000    0.027000
      2          1           0        0.000000    0.000000    0.827000
      3          1           0        0.000000    1.008806   -0.329667
      4          1           0        0.873651   -0.504403   -0.329667
      5          1           0       -0.873651   -0.504403   -0.329667
 ---------------------------------------------------------------------
 Rotational constants (GHZ):    197.1451124    197.1451124    164.2463644
 Leave Link  202 at Sun Apr 10 20:42:42 2016, MaxMem=   33554432 cpu:       0.0
 (Enter /software/gaussian-09RevA.02-el6-x86_64/g09/l301.exe)
 Standard basis: 6-31G (6D, 7F)
 Ernie: Thresh=  0.10000D-02 Tol=  0.10000D-05 Strict=F.
 There are    13 symmetry adapted basis functions of A'  symmetry.
 There are     4 symmetry adapted basis functions of A"  symmetry.
 Integral buffers will be    131072 words long.
 Raffenetti 2 integral format.
 Two-electron integral symmetry is turned on.
    17 basis functions,    38 primitive gaussians,    17 cartesian basis functions
     5 alpha electrons        5 beta electrons
       nuclear repulsion energy        14.8138039499 Hartrees.
 IExCor=    0 DFT=F Ex=HF Corr=None ExCW=0 ScaHFX=  1.000000
 ScaDFX=  1.000000  1.000000  1.000000  1.000000 ScalE2=  1.000000  1.000000
 IRadAn=      0 IRanWt=     -1 IRanGd=            0 ICorTp=0
 NAtoms=    5 NActive=    5 NUniq=    3 SFac= 2.08D+00 NAtFMM=   80 NAOKFM=F Big=F
 Leave Link  301 at Sun Apr 10 20:42:42 2016, MaxMem=   33554432 cpu:       0.1
 (Enter /software/gaussian-09RevA.02-el6-x86_64/g09/l302.exe)
 NPDir=0 NMtPBC=     1 NCelOv=     1 NCel=       1 NClECP=     1 NCelD=      1
         NCelK=      1 NCelE2=     1 NClLst=     1 CellRange=     0.0.
 One-electron integrals computed using PRISM.
 One-electron integral symmetry used in STVInt
 NBasis=    17 RedAO= T  NBF=    13     4
 NBsUse=    17 1.00D-06 NBFU=    13     4
 Leave Link  302 at Sun Apr 10 20:42:42 2016, MaxMem=   33554432 cpu:       0.1
 (Enter /software/gaussian-09RevA.02-el6-x86_64/g09/l303.exe)
 DipDrv:  MaxL=1.
 Leave Link  303 at Sun Apr 10 20:42:42 2016, MaxMem=   33554432 cpu:       0.0
 (Enter /software/gaussian-09RevA.02-el6-x86_64/g09/l401.exe)
 Initial guess read from the read-write file.
 B after Tr=     0.000000    0.000000    0.000000
         Rot=    1.000000    0.000000    0.000000    0.000000 Ang=   0.00 deg.
 Guess basis will be translated and rotated to current coordinates.
 Initial guess orbital symmetries:
 Alpha Orbitals:
       Occupied  (A1) (A1) (A1) (E) (E)
       Virtual   (A1) (E) (E) (A1) (A1) (E) (E) (E) (E) (A1) (A1)
                 (A1)
 Beta  Orbitals:
       Occupied  (A1) (A1) (A1) (E) (E)
       Virtual   (A1) (E) (E) (A1) (A1) (E) (E) (E) (E) (A1) (A1)
                 (A1)
 The electronic state of the initial guess is 1-A1.
 Initial guess <Sx>= 0.0000 <Sy>= 0.0000 <Sz>= 0.0000 <S**2>= 0.0000 S= 0.0000
 Generating alternative initial guess.
 Harris functional with IExCor=  205 diagonalized for initial guess.
 ExpMin= 1.61D-01 ExpMax= 3.05D+03 ExpMxC= 4.57D+02 IAcc=1 IRadAn=         1 AccDes= 0.00D+00
 HarFok:  IExCor=  205 AccDes= 0.00D+00 IRadAn=         1 IDoV= 1
 ScaDFX=  1.000000  1.000000  1.000000  1.000000
 FoFCou: FMM=F IPFlag=           0 FMFlag=      100000 FMFlg1=           0
         NFxFlg=           0 DoJE=T BraDBF=F KetDBF=T FulRan=T
         Omega=  0.000000  0.000000  1.000000  0.000000  0.000000 ICntrl=     500 IOpCl=  0
         NMat0=    1 NMatS0=    1 NMatT0=    0 NMatD0=    1 NMtDS0=    0 NMtDT0=    0
         I1Cent=           4 NGrid=           0.
 Petite list used in FoFCou.
 Harris En= -40.3156837516538    
 Leave Link  401 at Sun Apr 10 20:42:42 2016, MaxMem=   33554432 cpu:       0.3
 (Enter /software/gaussian-09RevA.02-el6-x86_64/g09/l502.exe)
 UHF open shell SCF:
 Requested convergence on RMS density matrix=1.00D-08 within 128 cycles.
 Requested convergence on MAX density matrix=1.00D-06.
 Requested convergence on             energy=1.00D-06.
 No special actions if energy rises.
 Using DIIS extrapolation, IDIIS=  1040.
 Integral symmetry usage will be decided dynamically.
 Keep R1 and R2 ints in memory in canonical form, NReq=843414.
 IEnd=       19831 IEndB=       19831 NGot=    33554432 MDV=    33528114
 LenX=    33528114 LenY=    33527232
 Symmetry not used in FoFDir.
 MinBra= 0 MaxBra= 1 Meth= 1.
 IRaf=       0 NMat=   1 IRICut=       1 DoRegI=T DoRafI=F ISym2E= 0 JSym2E=0.

 Cycle   1  Pass 1  IDiag  1:
 E= -40.0791632854779    
 DIIS: error= 1.05D-02 at cycle   1 NSaved=   1.
 NSaved= 1 IEnMin= 1 EnMin= -40.0791632854779     IErMin= 1 ErrMin= 1.05D-02
 ErrMax= 1.05D-02 EMaxC= 1.00D-01 BMatC= 7.67D-03 BMatP= 7.67D-03
 IDIUse=3 WtCom= 8.95D-01 WtEn= 1.05D-01
 Coeff-Com:  0.100D+01
 Coeff-En:   0.100D+01
 Coeff:      0.100D+01
 Recover alternate guess density for next cycle.
 RMSDP=1.89D-02 MaxDP=1.32D-01              OVMax= 0.00D+00

 Cycle   2  Pass 1  IDiag  1:
 E= -39.9083019912785     Delta-E=        0.170861294199 Rises=F Damp=F
 Switch densities from cycles 1 and 2 for lowest energy.
 DIIS: error= 1.06D-01 at cycle   2 NSaved=   2.
 NSaved= 2 IEnMin= 1 EnMin= -40.0791632854779     IErMin= 1 ErrMin= 1.05D-02
 ErrMax= 1.06D-01 EMaxC= 1.00D+00 BMatC= 6.52D-01 BMatP= 7.67D-03
 IDIUse=1 WtCom= 1.00D+00 WtEn= 0.00D+00
 Coeff-Com:  0.105D+01-0.457D-01
 Coeff:      0.105D+01-0.457D-01
 Gap=     0.812 Goal=   None    Shift=    0.000
 Gap=     0.812 Goal=   None    Shift=    0.000
 RMSDP=7.69D-02 MaxDP=1.04D+00 DE= 1.71D-01 OVMax= 1.87D-02

 Cycle   3  Pass 1  IDiag  1:
 E= -40.0816533040054     Delta-E=       -0.173351312727 Rises=F Damp=F
 DIIS: error= 1.84D-03 at cycle   3 NSaved=   3.
 NSaved= 3 IEnMin= 3 EnMin= -40.0816533040054     IErMin= 3 ErrMin= 1.84D-03
 ErrMax= 1.84D-03 EMaxC= 1.00D+00 BMatC= 2.77D-04 BMatP= 7.67D-03
 IDIUse=1 WtCom= 1.00D+00 WtEn= 0.00D+00
 Coeff-Com: -0.177D+00 0.158D-01 0.116D+01
 Coeff:     -0.177D+00 0.158D-01 0.116D+01
 Gap=     0.810 Goal=   None    Shift=    0.000
 Gap=     0.810 Goal=   None    Shift=    0.000
 RMSDP=7.38D-04 MaxDP=2.67D-03 DE=-1.73D-01 OVMax= 4.53D-03

 Cycle   4  Pass 1  IDiag  1:
 E= -40.0817803235235     Delta-E=       -0.000127019518 Rises=F Damp=F
 DIIS: error= 4.39D-04 at cycle   4 NSaved=   4.
 NSaved= 4 IEnMin= 4 EnMin= -40.0817803235235     IErMin= 4 ErrMin= 4.39D-04
 ErrMax= 4.39D-04 EMaxC= 1.00D+00 BMatC= 8.77D-06 BMatP= 2.77D-04
 IDIUse=1 WtCom= 1.00D+00 WtEn= 0.00D+00
 Coeff-Com:  0.304D-01-0.362D-02-0.309D+00 0.128D+01
 Coeff:      0.304D-01-0.362D-02-0.309D+00 0.128D+01
 Gap=     0.810 Goal=   None    Shift=    0.000
 Gap=     0.810 Goal=   None    Shift=    0.000
 RMSDP=1.71D-04 MaxDP=1.00D-03 DE=-1.27D-04 OVMax= 1.28D-03

 Cycle   5  Pass 1  IDiag  1:
 E= -40.0817854647596     Delta-E=       -0.000005141236 Rises=F Damp=F
 DIIS: error= 4.94D-05 at cycle   5 NSaved=   5.
 NSaved= 5 IEnMin= 5 EnMin= -40.0817854647596     IErMin= 5 ErrMin= 4.94D-05
 ErrMax= 4.94D-05 EMaxC= 1.00D+00 BMatC= 1.26D-07 BMatP= 8.77D-06
 IDIUse=1 WtCom= 1.00D+00 WtEn= 0.00D+00
 Coeff-Com: -0.568D-02 0.688D-03 0.634D-01-0.342D+00 0.128D+01
 Coeff:     -0.568D-02 0.688D-03 0.634D-01-0.342D+00 0.128D+01
 Gap=     0.810 Goal=   None    Shift=    0.000
 Gap=     0.810 Goal=   None    Shift=    0.000
 RMSDP=3.37D-05 MaxDP=1.67D-04 DE=-5.14D-06 OVMax= 1.69D-04

 Cycle   6  Pass 1  IDiag  1:
 E= -40.0817855421195     Delta-E=       -0.000000077360 Rises=F Damp=F
 DIIS: error= 2.33D-06 at cycle   6 NSaved=   6.
 NSaved= 6 IEnMin= 6 EnMin= -40.0817855421195     IErMin= 6 ErrMin= 2.33D-06
 ErrMax= 2.33D-06 EMaxC= 1.00D+00 BMatC= 6.33D-10 BMatP= 1.26D-07
 IDIUse=1 WtCom= 1.00D+00 WtEn= 0.00D+00
 Coeff-Com:  0.713D-03-0.831D-04-0.801D-02 0.462D-01-0.216D+00 0.118D+01
 Coeff:      0.713D-03-0.831D-04-0.801D-02 0.462D-01-0.216D+00 0.118D+01
 Gap=     0.810 Goal=   None    Shift=    0.000
 Gap=     0.810 Goal=   None    Shift=    0.000
 RMSDP=1.90D-06 MaxDP=9.14D-06 DE=-7.74D-08 OVMax= 7.56D-06

 Cycle   7  Pass 1  IDiag  1:
 E= -40.0817855424409     Delta-E=       -0.000000000321 Rises=F Damp=F
 DIIS: error= 4.04D-07 at cycle   7 NSaved=   7.
 NSaved= 7 IEnMin= 7 EnMin= -40.0817855424409     IErMin= 7 ErrMin= 4.04D-07
 ErrMax= 4.04D-07 EMaxC= 1.00D+00 BMatC= 1.02D-11 BMatP= 6.33D-10
 IDIUse=1 WtCom= 1.00D+00 WtEn= 0.00D+00
 Coeff-Com: -0.141D-03 0.160D-04 0.148D-02-0.798D-02 0.364D-01-0.247D+00
 Coeff-Com:  0.122D+01
 Coeff:     -0.141D-03 0.160D-04 0.148D-02-0.798D-02 0.364D-01-0.247D+00
 Coeff:      0.122D+01
 Gap=     0.810 Goal=   None    Shift=    0.000
 Gap=     0.810 Goal=   None    Shift=    0.000
 RMSDP=2.66D-07 MaxDP=1.41D-06 DE=-3.21D-10 OVMax= 1.55D-06

 Cycle   8  Pass 1  IDiag  1:
 E= -40.0817855424470     Delta-E=       -0.000000000006 Rises=F Damp=F
 DIIS: error= 6.04D-08 at cycle   8 NSaved=   8.
 NSaved= 8 IEnMin= 8 EnMin= -40.0817855424470     IErMin= 8 ErrMin= 6.04D-08
 ErrMax= 6.04D-08 EMaxC= 1.00D+00 BMatC= 2.09D-13 BMatP= 1.02D-11
 IDIUse=1 WtCom= 1.00D+00 WtEn= 0.00D+00
 Coeff-Com:  0.107D-04-0.969D-06-0.103D-03 0.486D-03-0.210D-02 0.209D-01
 Coeff-Com: -0.224D+00 0.121D+01
 Coeff:      0.107D-04-0.969D-06-0.103D-03 0.486D-03-0.210D-02 0.209D-01
 Coeff:     -0.224D+00 0.121D+01
 Gap=     0.810 Goal=   None    Shift=    0.000
 Gap=     0.810 Goal=   None    Shift=    0.000
 RMSDP=4.87D-08 MaxDP=3.13D-07 DE=-6.15D-12 OVMax= 2.52D-07

 Cycle   9  Pass 1  IDiag  1:
 E= -40.0817855424472     Delta-E=        0.000000000000 Rises=F Damp=F
 DIIS: error= 5.55D-09 at cycle   9 NSaved=   9.
 NSaved= 9 IEnMin= 9 EnMin= -40.0817855424472     IErMin= 9 ErrMin= 5.55D-09
 ErrMax= 5.55D-09 EMaxC= 1.00D+00 BMatC= 2.52D-15 BMatP= 2.09D-13
 IDIUse=1 WtCom= 1.00D+00 WtEn= 0.00D+00
 Coeff-Com:  0.426D-06-0.109D-06-0.590D-05 0.461D-04-0.249D-03 0.341D-03
 Coeff-Com:  0.240D-01-0.236D+00 0.121D+01
 Coeff:      0.426D-06-0.109D-06-0.590D-05 0.461D-04-0.249D-03 0.341D-03
 Coeff:      0.240D-01-0.236D+00 0.121D+01
 Gap=     0.810 Goal=   None    Shift=    0.000
 Gap=     0.810 Goal=   None    Shift=    0.000
 RMSDP=4.64D-09 MaxDP=2.54D-08 DE=-1.42D-13 OVMax= 2.46D-08

 SCF Done:  E(UHF) =  -40.0817855424     A.U. after    9 cycles
             Convg  =    0.4641D-08             -V/T =  1.9801
 <Sx>= 0.0000 <Sy>= 0.0000 <Sz>= 0.0000 <S**2>= 0.0000 S= 0.0000
 <L.S>= 0.000000000000E+00
 KE= 4.089524019592D+01 PE=-1.229489693022D+02 EE= 2.715813961388D+01
 Annihilation of the first spin contaminant:
 S**2 before annihilation     0.0000,   after     0.0000
 Leave Link  502 at Sun Apr 10 20:42:42 2016, MaxMem=   33554432 cpu:       0.1
 (Enter /software/gaussian-09RevA.02-el6-x86_64/g09/l108.exe)
 Variable Step   Value    
 -------- ---- -----------
     1       3    1.700754
 Leave Link  108 at Sun Apr 10 20:42:42 2016, MaxMem=   33554432 cpu:       0.0
 (Enter /software/gaussian-09RevA.02-el6-x86_64/g09/l202.exe)
 ---------------------------------------------------------------------------------------------------
                            Z-MATRIX (ANGSTROMS AND DEGREES)
   CD    Cent   Atom    N1       Length/X        N2       Alpha/Y        N3        Beta/Z          J
 ---------------------------------------------------------------------------------------------------
      1      1  C 
      2      2  H        1   0.900000(     1)
      3      3  H        1   1.070000(     2)      2  109.471(     5)
      4      4  H        1   1.070000(     3)      3  109.471(     6)      2 -120.000(     8)      0
      5      5  H        1   1.070000(     4)      4  109.471(     7)      2 -120.000(     9)      0
 ---------------------------------------------------------------------------------------------------
                         Z-Matrix orientation:                         
 ---------------------------------------------------------------------
 Center     Atomic      Atomic             Coordinates (Angstroms)
 Number     Number       Type             X           Y           Z
 ---------------------------------------------------------------------
      1          6           0        0.000000    0.000000    0.000000
      2          1           0        0.000000    0.000000    0.900000
      3          1           0        1.008806    0.000000   -0.356667
      4          1           0       -0.504403   -0.873651   -0.356667
      5          1           0       -0.504403    0.873651   -0.356667
 ---------------------------------------------------------------------
                    Distance matrix (angstroms):
                    1          2          3          4          5
     1  C    0.000000
     2  H    0.900000   0.000000
     3  H    1.070000   1.611490   0.000000
     4  H    1.070000   1.611490   1.747303   0.000000
     5  H    1.070000   1.611490   1.747303   1.747303   0.000000
 Stoichiometry    CH4
 Framework group  C3V[C3(CH),3SGV(H)]
 Deg. of freedom     3
 Full point group                 C3V     NOp   6
 Largest Abelian subgroup         CS      NOp   2
 Largest concise Abelian subgroup CS      NOp   2
                         Standard orientation:                         
 ---------------------------------------------------------------------
 Center     Atomic      Atomic             Coordinates (Angstroms)
 Number     Number       Type             X           Y           Z
 ---------------------------------------------------------------------
      1          6           0        0.000000    0.000000    0.017000
      2          1           0        0.000000    0.000000    0.917000
      3          1           0        0.000000    1.008806   -0.339667
      4          1           0        0.873651   -0.504403   -0.339667
      5          1           0       -0.873651   -0.504403   -0.339667
 ---------------------------------------------------------------------
 Rotational constants (GHZ):    184.6062291    184.6062291    164.2463644
 Leave Link  202 at Sun Apr 10 20:42:42 2016, MaxMem=   33554432 cpu:       0.0
 (Enter /software/gaussian-09RevA.02-el6-x86_64/g09/l301.exe)
 Standard basis: 6-31G (6D, 7F)
 Ernie: Thresh=  0.10000D-02 Tol=  0.10000D-05 Strict=F.
 There are    13 symmetry adapted basis functions of A'  symmetry.
 There are     4 symmetry adapted basis functions of A"  symmetry.
 Integral buffers will be    131072 words long.
 Raffenetti 2 integral format.
 Two-electron integral symmetry is turned on.
    17 basis functions,    38 primitive gaussians,    17 cartesian basis functions
     5 alpha electrons        5 beta electrons
       nuclear repulsion energy        14.3235886583 Hartrees.
 IExCor=    0 DFT=F Ex=HF Corr=None ExCW=0 ScaHFX=  1.000000
 ScaDFX=  1.000000  1.000000  1.000000  1.000000 ScalE2=  1.000000  1.000000
 IRadAn=      0 IRanWt=     -1 IRanGd=            0 ICorTp=0
 NAtoms=    5 NActive=    5 NUniq=    3 SFac= 2.08D+00 NAtFMM=   80 NAOKFM=F Big=F
 Leave Link  301 at Sun Apr 10 20:42:42 2016, MaxMem=   33554432 cpu:       0.1
 (Enter /software/gaussian-09RevA.02-el6-x86_64/g09/l302.exe)
 NPDir=0 NMtPBC=     1 NCelOv=     1 NCel=       1 NClECP=     1 NCelD=      1
         NCelK=      1 NCelE2=     1 NClLst=     1 CellRange=     0.0.
 One-electron integrals computed using PRISM.
 One-electron integral symmetry used in STVInt
 NBasis=    17 RedAO= T  NBF=    13     4
 NBsUse=    17 1.00D-06 NBFU=    13     4
 Leave Link  302 at Sun Apr 10 20:42:43 2016, MaxMem=   33554432 cpu:       0.2
 (Enter /software/gaussian-09RevA.02-el6-x86_64/g09/l303.exe)
 DipDrv:  MaxL=1.
 Leave Link  303 at Sun Apr 10 20:42:43 2016, MaxMem=   33554432 cpu:       0.0
 (Enter /software/gaussian-09RevA.02-el6-x86_64/g09/l401.exe)
 Initial guess read from the read-write file.
 B after Tr=     0.000000    0.000000    0.000000
         Rot=    1.000000    0.000000    0.000000    0.000000 Ang=   0.00 deg.
 Guess basis will be translated and rotated to current coordinates.
 Initial guess orbital symmetries:
 Alpha Orbitals:
       Occupied  (A1) (A1) (A1) (E) (E)
       Virtual   (A1) (E) (E) (A1) (A1) (E) (E) (E) (E) (A1) (A1)
                 (A1)
 Beta  Orbitals:
       Occupied  (A1) (A1) (A1) (E) (E)
       Virtual   (A1) (E) (E) (A1) (A1) (E) (E) (E) (E) (A1) (A1)
                 (A1)
 The electronic state of the initial guess is 1-A1.
 Initial guess <Sx>= 0.0000 <Sy>= 0.0000 <Sz>= 0.0000 <S**2>= 0.0000 S= 0.0000
 Generating alternative initial guess.
 Harris functional with IExCor=  205 diagonalized for initial guess.
 ExpMin= 1.61D-01 ExpMax= 3.05D+03 ExpMxC= 4.57D+02 IAcc=1 IRadAn=         1 AccDes= 0.00D+00
 HarFok:  IExCor=  205 AccDes= 0.00D+00 IRadAn=         1 IDoV= 1
 ScaDFX=  1.000000  1.000000  1.000000  1.000000
 FoFCou: FMM=F IPFlag=           0 FMFlag=      100000 FMFlg1=           0
         NFxFlg=           0 DoJE=T BraDBF=F KetDBF=T FulRan=T
         Omega=  0.000000  0.000000  1.000000  0.000000  0.000000 ICntrl=     500 IOpCl=  0
         NMat0=    1 NMatS0=    1 NMatT0=    0 NMatD0=    1 NMtDS0=    0 NMtDT0=    0
         I1Cent=           4 NGrid=           0.
 Petite list used in FoFCou.
 Harris En= -40.3604234599233    
 Leave Link  401 at Sun Apr 10 20:42:43 2016, MaxMem=   33554432 cpu:       0.3
 (Enter /software/gaussian-09RevA.02-el6-x86_64/g09/l502.exe)
 UHF open shell SCF:
 Requested convergence on RMS density matrix=1.00D-08 within 128 cycles.
 Requested convergence on MAX density matrix=1.00D-06.
 Requested convergence on             energy=1.00D-06.
 No special actions if energy rises.
 Using DIIS extrapolation, IDIIS=  1040.
 Integral symmetry usage will be decided dynamically.
 Keep R1 and R2 ints in memory in canonical form, NReq=843414.
 IEnd=       19831 IEndB=       19831 NGot=    33554432 MDV=    33528114
 LenX=    33528114 LenY=    33527232
 Symmetry not used in FoFDir.
 MinBra= 0 MaxBra= 1 Meth= 1.
 IRaf=       0 NMat=   1 IRICut=       1 DoRegI=T DoRafI=F ISym2E= 0 JSym2E=0.

 Cycle   1  Pass 1  IDiag  1:
 E= -40.1450816788539    
 DIIS: error= 8.54D-03 at cycle   1 NSaved=   1.
 NSaved= 1 IEnMin= 1 EnMin= -40.1450816788539     IErMin= 1 ErrMin= 8.54D-03
 ErrMax= 8.54D-03 EMaxC= 1.00D-01 BMatC= 6.71D-03 BMatP= 6.71D-03
 IDIUse=3 WtCom= 9.15D-01 WtEn= 8.54D-02
 Coeff-Com:  0.100D+01
 Coeff-En:   0.100D+01
 Coeff:      0.100D+01
 Gap=     0.807 Goal=   None    Shift=    0.000
 Gap=     0.807 Goal=   None    Shift=    0.000
 GapD=    0.807 DampG=2.000 DampE=1.000 DampFc=2.0000 IDamp=-1.
 RMSDP=3.17D-03 MaxDP=1.54D-02              OVMax= 2.12D-02

 Cycle   2  Pass 1  IDiag  1:
 E= -40.1473733090080     Delta-E=       -0.002291630154 Rises=F Damp=F
 DIIS: error= 2.66D-03 at cycle   2 NSaved=   2.
 NSaved= 2 IEnMin= 2 EnMin= -40.1473733090080     IErMin= 2 ErrMin= 2.66D-03
 ErrMax= 2.66D-03 EMaxC= 1.00D-01 BMatC= 4.89D-04 BMatP= 6.71D-03
 IDIUse=3 WtCom= 9.73D-01 WtEn= 2.66D-02
 Coeff-Com:  0.198D-01 0.980D+00
 Coeff-En:   0.000D+00 0.100D+01
 Coeff:      0.193D-01 0.981D+00
 Gap=     0.811 Goal=   None    Shift=    0.000
 Gap=     0.811 Goal=   None    Shift=    0.000
 RMSDP=6.53D-04 MaxDP=3.90D-03 DE=-2.29D-03 OVMax= 4.09D-03

 Cycle   3  Pass 1  IDiag  1:
 E= -40.1475397798917     Delta-E=       -0.000166470884 Rises=F Damp=F
 DIIS: error= 1.01D-03 at cycle   3 NSaved=   3.
 NSaved= 3 IEnMin= 3 EnMin= -40.1475397798917     IErMin= 3 ErrMin= 1.01D-03
 ErrMax= 1.01D-03 EMaxC= 1.00D-01 BMatC= 5.62D-05 BMatP= 4.89D-04
 IDIUse=3 WtCom= 9.90D-01 WtEn= 1.01D-02
 Coeff-Com: -0.677D-01 0.113D+00 0.954D+00
 Coeff-En:   0.000D+00 0.000D+00 0.100D+01
 Coeff:     -0.670D-01 0.112D+00 0.955D+00
 Gap=     0.809 Goal=   None    Shift=    0.000
 Gap=     0.809 Goal=   None    Shift=    0.000
 RMSDP=2.41D-04 MaxDP=1.97D-03 DE=-1.66D-04 OVMax= 2.39D-03

 Cycle   4  Pass 1  IDiag  1:
 E= -40.1475611019739     Delta-E=       -0.000021322082 Rises=F Damp=F
 DIIS: error= 1.68D-04 at cycle   4 NSaved=   4.
 NSaved= 4 IEnMin= 4 EnMin= -40.1475611019739     IErMin= 4 ErrMin= 1.68D-04
 ErrMax= 1.68D-04 EMaxC= 1.00D-01 BMatC= 1.53D-06 BMatP= 5.62D-05
 IDIUse=3 WtCom= 9.98D-01 WtEn= 1.68D-03
 Coeff-Com:  0.122D-01-0.568D-01-0.209D+00 0.125D+01
 Coeff-En:   0.000D+00 0.000D+00 0.000D+00 0.100D+01
 Coeff:      0.121D-01-0.567D-01-0.209D+00 0.125D+01
 Gap=     0.809 Goal=   None    Shift=    0.000
 Gap=     0.809 Goal=   None    Shift=    0.000
 RMSDP=9.43D-05 MaxDP=4.66D-04 DE=-2.13D-05 OVMax= 6.13D-04

 Cycle   5  Pass 1  IDiag  1:
 E= -40.1475621086402     Delta-E=       -0.000001006666 Rises=F Damp=F
 DIIS: error= 1.75D-05 at cycle   5 NSaved=   5.
 NSaved= 5 IEnMin= 5 EnMin= -40.1475621086402     IErMin= 5 ErrMin= 1.75D-05
 ErrMax= 1.75D-05 EMaxC= 1.00D-01 BMatC= 1.70D-08 BMatP= 1.53D-06
 IDIUse=1 WtCom= 1.00D+00 WtEn= 0.00D+00
 Coeff-Com: -0.185D-02 0.112D-01 0.292D-01-0.275D+00 0.124D+01
 Coeff:     -0.185D-02 0.112D-01 0.292D-01-0.275D+00 0.124D+01
 Gap=     0.809 Goal=   None    Shift=    0.000
 Gap=     0.809 Goal=   None    Shift=    0.000
 RMSDP=1.29D-05 MaxDP=6.98D-05 DE=-1.01D-06 OVMax= 6.18D-05

 Cycle   6  Pass 1  IDiag  1:
 E= -40.1475621185377     Delta-E=       -0.000000009898 Rises=F Damp=F
 DIIS: error= 9.09D-07 at cycle   6 NSaved=   6.
 NSaved= 6 IEnMin= 6 EnMin= -40.1475621185377     IErMin= 6 ErrMin= 9.09D-07
 ErrMax= 9.09D-07 EMaxC= 1.00D-01 BMatC= 9.40D-11 BMatP= 1.70D-08
 IDIUse=1 WtCom= 1.00D+00 WtEn= 0.00D+00
 Coeff-Com:  0.280D-03-0.177D-02-0.399D-02 0.446D-01-0.244D+00 0.120D+01
 Coeff:      0.280D-03-0.177D-02-0.399D-02 0.446D-01-0.244D+00 0.120D+01
 Gap=     0.809 Goal=   None    Shift=    0.000
 Gap=     0.809 Goal=   None    Shift=    0.000
 RMSDP=6.92D-07 MaxDP=2.77D-06 DE=-9.90D-09 OVMax= 3.66D-06

 Cycle   7  Pass 1  IDiag  1:
 E= -40.1475621185895     Delta-E=       -0.000000000052 Rises=F Damp=F
 DIIS: error= 1.65D-07 at cycle   7 NSaved=   7.
 NSaved= 7 IEnMin= 7 EnMin= -40.1475621185895     IErMin= 7 ErrMin= 1.65D-07
 ErrMax= 1.65D-07 EMaxC= 1.00D-01 BMatC= 1.93D-12 BMatP= 9.40D-11
 IDIUse=1 WtCom= 1.00D+00 WtEn= 0.00D+00
 Coeff-Com: -0.705D-04 0.419D-03 0.992D-03-0.105D-01 0.571D-01-0.347D+00
 Coeff-Com:  0.130D+01
 Coeff:     -0.705D-04 0.419D-03 0.992D-03-0.105D-01 0.571D-01-0.347D+00
 Coeff:      0.130D+01
 Gap=     0.809 Goal=   None    Shift=    0.000
 Gap=     0.809 Goal=   None    Shift=    0.000
 RMSDP=1.38D-07 MaxDP=8.18D-07 DE=-5.19D-11 OVMax= 8.19D-07

 Cycle   8  Pass 1  IDiag  1:
 E= -40.1475621185908     Delta-E=       -0.000000000001 Rises=F Damp=F
 DIIS: error= 1.37D-08 at cycle   8 NSaved=   8.
 NSaved= 8 IEnMin= 8 EnMin= -40.1475621185908     IErMin= 8 ErrMin= 1.37D-08
 ErrMax= 1.37D-08 EMaxC= 1.00D-01 BMatC= 1.74D-14 BMatP= 1.93D-12
 IDIUse=1 WtCom= 1.00D+00 WtEn= 0.00D+00
 Coeff-Com:  0.127D-04-0.729D-04-0.172D-03 0.181D-02-0.980D-02 0.636D-01
 Coeff-Com: -0.292D+00 0.124D+01
 Coeff:      0.127D-04-0.729D-04-0.172D-03 0.181D-02-0.980D-02 0.636D-01
 Coeff:     -0.292D+00 0.124D+01
 Gap=     0.809 Goal=   None    Shift=    0.000
 Gap=     0.809 Goal=   None    Shift=    0.000
 RMSDP=1.33D-08 MaxDP=7.89D-08 DE=-1.23D-12 OVMax= 7.36D-08

 Cycle   9  Pass 1  IDiag  1:
 E= -40.1475621185907     Delta-E=        0.000000000000 Rises=F Damp=F
 DIIS: error= 8.62D-10 at cycle   9 NSaved=   9.
 NSaved= 9 IEnMin= 8 EnMin= -40.1475621185908     IErMin= 9 ErrMin= 8.62D-10
 ErrMax= 8.62D-10 EMaxC= 1.00D-01 BMatC= 1.31D-16 BMatP= 1.74D-14
 IDIUse=1 WtCom= 1.00D+00 WtEn= 0.00D+00
 Coeff-Com: -0.108D-05 0.591D-05 0.134D-04-0.141D-03 0.763D-03-0.518D-02
 Coeff-Com:  0.267D-01-0.173D+00 0.115D+01
 Coeff:     -0.108D-05 0.591D-05 0.134D-04-0.141D-03 0.763D-03-0.518D-02
 Coeff:      0.267D-01-0.173D+00 0.115D+01
 Gap=     0.809 Goal=   None    Shift=    0.000
 Gap=     0.809 Goal=   None    Shift=    0.000
 RMSDP=1.08D-09 MaxDP=5.18D-09 DE= 2.13D-14 OVMax= 5.07D-09

 SCF Done:  E(UHF) =  -40.1475621186     A.U. after    9 cycles
             Convg  =    0.1079D-08             -V/T =  1.9879
 <Sx>= 0.0000 <Sy>= 0.0000 <Sz>= 0.0000 <S**2>= 0.0000 S= 0.0000
 <L.S>= 0.000000000000E+00
 KE= 4.063777721779D+01 PE=-1.219090717017D+02 EE= 2.680014370698D+01
 Annihilation of the first spin contaminant:
 S**2 before annihilation     0.0000,   after     0.0000
 Leave Link  502 at Sun Apr 10 20:42:43 2016, MaxMem=   33554432 cpu:       0.1
 (Enter /software/gaussian-09RevA.02-el6-x86_64/g09/l108.exe)
 Variable Step   Value    
 -------- ---- -----------
     1       4    1.889726
 Leave Link  108 at Sun Apr 10 20:42:43 2016, MaxMem=   33554432 cpu:       0.0
 (Enter /software/gaussian-09RevA.02-el6-x86_64/g09/l202.exe)
 ---------------------------------------------------------------------------------------------------
                            Z-MATRIX (ANGSTROMS AND DEGREES)
   CD    Cent   Atom    N1       Length/X        N2       Alpha/Y        N3        Beta/Z          J
 ---------------------------------------------------------------------------------------------------
      1      1  C 
      2      2  H        1   1.000000(     1)
      3      3  H        1   1.070000(     2)      2  109.471(     5)
      4      4  H        1   1.070000(     3)      3  109.471(     6)      2 -120.000(     8)      0
      5      5  H        1   1.070000(     4)      4  109.471(     7)      2 -120.000(     9)      0
 ---------------------------------------------------------------------------------------------------
                         Z-Matrix orientation:                         
 ---------------------------------------------------------------------
 Center     Atomic      Atomic             Coordinates (Angstroms)
 Number     Number       Type             X           Y           Z
 ---------------------------------------------------------------------
      1          6           0        0.000000    0.000000    0.000000
      2          1           0        0.000000    0.000000    1.000000
      3          1           0        1.008806    0.000000   -0.356667
      4          1           0       -0.504403   -0.873651   -0.356667
      5          1           0       -0.504403    0.873651   -0.356667
 ---------------------------------------------------------------------
                    Distance matrix (angstroms):
                    1          2          3          4          5
     1  C    0.000000
     2  H    1.000000   0.000000
     3  H    1.070000   1.690631   0.000000
     4  H    1.070000   1.690631   1.747303   0.000000
     5  H    1.070000   1.690631   1.747303   1.747303   0.000000
 Stoichiometry    CH4
 Framework group  C3V[C3(CH),3SGV(H)]
 Deg. of freedom     3
 Full point group                 C3V     NOp   6
 Largest Abelian subgroup         CS      NOp   2
 Largest concise Abelian subgroup CS      NOp   2
                         Standard orientation:                         
 ---------------------------------------------------------------------
 Center     Atomic      Atomic             Coordinates (Angstroms)
 Number     Number       Type             X           Y           Z
 ---------------------------------------------------------------------
      1          6           0        0.000000    0.000000    0.007000
      2          1           0        0.000000    0.000000    1.007000
      3          1           0        0.000000    1.008806   -0.349667
      4          1           0        0.873651   -0.504403   -0.349667
      5          1           0       -0.873651   -0.504403   -0.349667
 ---------------------------------------------------------------------
 Rotational constants (GHZ):    172.4482395    172.4482395    164.2463644
 Leave Link  202 at Sun Apr 10 20:42:43 2016, MaxMem=   33554432 cpu:       0.0
 (Enter /software/gaussian-09RevA.02-el6-x86_64/g09/l301.exe)
 Standard basis: 6-31G (6D, 7F)
 Ernie: Thresh=  0.10000D-02 Tol=  0.10000D-05 Strict=F.
 There are    13 symmetry adapted basis functions of A'  symmetry.
 There are     4 symmetry adapted basis functions of A"  symmetry.
 Integral buffers will be    131072 words long.
 Raffenetti 2 integral format.
 Two-electron integral symmetry is turned on.
    17 basis functions,    38 primitive gaussians,    17 cartesian basis functions
     5 alpha electrons        5 beta electrons
       nuclear repulsion energy        13.9246882644 Hartrees.
 IExCor=    0 DFT=F Ex=HF Corr=None ExCW=0 ScaHFX=  1.000000
 ScaDFX=  1.000000  1.000000  1.000000  1.000000 ScalE2=  1.000000  1.000000
 IRadAn=      0 IRanWt=     -1 IRanGd=            0 ICorTp=0
 NAtoms=    5 NActive=    5 NUniq=    3 SFac= 2.08D+00 NAtFMM=   80 NAOKFM=F Big=F
 Leave Link  301 at Sun Apr 10 20:42:43 2016, MaxMem=   33554432 cpu:       0.1
 (Enter /software/gaussian-09RevA.02-el6-x86_64/g09/l302.exe)
 NPDir=0 NMtPBC=     1 NCelOv=     1 NCel=       1 NClECP=     1 NCelD=      1
         NCelK=      1 NCelE2=     1 NClLst=     1 CellRange=     0.0.
 One-electron integrals computed using PRISM.
 One-electron integral symmetry used in STVInt
 NBasis=    17 RedAO= T  NBF=    13     4
 NBsUse=    17 1.00D-06 NBFU=    13     4
 Leave Link  302 at Sun Apr 10 20:42:43 2016, MaxMem=   33554432 cpu:       0.2
 (Enter /software/gaussian-09RevA.02-el6-x86_64/g09/l303.exe)
 DipDrv:  MaxL=1.
 Leave Link  303 at Sun Apr 10 20:42:43 2016, MaxMem=   33554432 cpu:       0.1
 (Enter /software/gaussian-09RevA.02-el6-x86_64/g09/l401.exe)
 Initial guess read from the read-write file.
 B after Tr=     0.000000    0.000000    0.000000
         Rot=    1.000000    0.000000    0.000000    0.000000 Ang=   0.00 deg.
 Guess basis will be translated and rotated to current coordinates.
 Initial guess orbital symmetries:
 Alpha Orbitals:
       Occupied  (A1) (A1) (A1) (E) (E)
       Virtual   (A1) (E) (E) (A1) (A1) (E) (E) (E) (E) (A1) (A1)
                 (A1)
 Beta  Orbitals:
       Occupied  (A1) (A1) (A1) (E) (E)
       Virtual   (A1) (E) (E) (A1) (A1) (E) (E) (E) (E) (A1) (A1)
                 (A1)
 The electronic state of the initial guess is 1-A1.
 Initial guess <Sx>= 0.0000 <Sy>= 0.0000 <Sz>= 0.0000 <S**2>= 0.0000 S= 0.0000
 Generating alternative initial guess.
 Harris functional with IExCor=  205 diagonalized for initial guess.
 ExpMin= 1.61D-01 ExpMax= 3.05D+03 ExpMxC= 4.57D+02 IAcc=1 IRadAn=         1 AccDes= 0.00D+00
 HarFok:  IExCor=  205 AccDes= 0.00D+00 IRadAn=         1 IDoV= 1
 ScaDFX=  1.000000  1.000000  1.000000  1.000000
 FoFCou: FMM=F IPFlag=           0 FMFlag=      100000 FMFlg1=           0
         NFxFlg=           0 DoJE=T BraDBF=F KetDBF=T FulRan=T
         Omega=  0.000000  0.000000  1.000000  0.000000  0.000000 ICntrl=     500 IOpCl=  0
         NMat0=    1 NMatS0=    1 NMatT0=    0 NMatD0=    1 NMtDS0=    0 NMtDT0=    0
         I1Cent=           4 NGrid=           0.
 Petite list used in FoFCou.
 Harris En= -40.3735708629954    
 Leave Link  401 at Sun Apr 10 20:42:44 2016, MaxMem=   33554432 cpu:       0.3
 (Enter /software/gaussian-09RevA.02-el6-x86_64/g09/l502.exe)
 UHF open shell SCF:
 Requested convergence on RMS density matrix=1.00D-08 within 128 cycles.
 Requested convergence on MAX density matrix=1.00D-06.
 Requested convergence on             energy=1.00D-06.
 No special actions if energy rises.
 Using DIIS extrapolation, IDIIS=  1040.
 Integral symmetry usage will be decided dynamically.
 Keep R1 and R2 ints in memory in canonical form, NReq=843414.
 IEnd=       19831 IEndB=       19831 NGot=    33554432 MDV=    33528114
 LenX=    33528114 LenY=    33527232
 Symmetry not used in FoFDir.
 MinBra= 0 MaxBra= 1 Meth= 1.
 IRaf=       0 NMat=   1 IRICut=       1 DoRegI=T DoRafI=F ISym2E= 0 JSym2E=0.

 Cycle   1  Pass 1  IDiag  1:
 E= -40.1725690202512    
 DIIS: error= 7.43D-03 at cycle   1 NSaved=   1.
 NSaved= 1 IEnMin= 1 EnMin= -40.1725690202512     IErMin= 1 ErrMin= 7.43D-03
 ErrMax= 7.43D-03 EMaxC= 1.00D-01 BMatC= 5.86D-03 BMatP= 5.86D-03
 IDIUse=3 WtCom= 9.26D-01 WtEn= 7.43D-02
 Coeff-Com:  0.100D+01
 Coeff-En:   0.100D+01
 Coeff:      0.100D+01
 Gap=     0.806 Goal=   None    Shift=    0.000
 Gap=     0.806 Goal=   None    Shift=    0.000
 GapD=    0.806 DampG=2.000 DampE=1.000 DampFc=2.0000 IDamp=-1.
 RMSDP=2.76D-03 MaxDP=1.32D-02              OVMax= 2.12D-02

 Cycle   2  Pass 1  IDiag  1:
 E= -40.1746685182527     Delta-E=       -0.002099498001 Rises=F Damp=F
 DIIS: error= 2.52D-03 at cycle   2 NSaved=   2.
 NSaved= 2 IEnMin= 2 EnMin= -40.1746685182527     IErMin= 2 ErrMin= 2.52D-03
 ErrMax= 2.52D-03 EMaxC= 1.00D-01 BMatC= 4.49D-04 BMatP= 5.86D-03
 IDIUse=3 WtCom= 9.75D-01 WtEn= 2.52D-02
 Coeff-Com: -0.422D-02 0.100D+01
 Coeff-En:   0.000D+00 0.100D+01
 Coeff:     -0.411D-02 0.100D+01
 Gap=     0.809 Goal=   None    Shift=    0.000
 Gap=     0.809 Goal=   None    Shift=    0.000
 RMSDP=6.44D-04 MaxDP=3.79D-03 DE=-2.10D-03 OVMax= 4.00D-03

 Cycle   3  Pass 1  IDiag  1:
 E= -40.1748318090334     Delta-E=       -0.000163290781 Rises=F Damp=F
 DIIS: error= 9.17D-04 at cycle   3 NSaved=   3.
 NSaved= 3 IEnMin= 3 EnMin= -40.1748318090334     IErMin= 3 ErrMin= 9.17D-04
 ErrMax= 9.17D-04 EMaxC= 1.00D-01 BMatC= 5.51D-05 BMatP= 4.49D-04
 IDIUse=3 WtCom= 9.91D-01 WtEn= 9.17D-03
 Coeff-Com: -0.746D-01 0.127D+00 0.947D+00
 Coeff-En:   0.000D+00 0.000D+00 0.100D+01
 Coeff:     -0.739D-01 0.126D+00 0.948D+00
 Gap=     0.808 Goal=   None    Shift=    0.000
 Gap=     0.808 Goal=   None    Shift=    0.000
 RMSDP=2.52D-04 MaxDP=2.00D-03 DE=-1.63D-04 OVMax= 2.60D-03

 Cycle   4  Pass 1  IDiag  1:
 E= -40.1748538283390     Delta-E=       -0.000022019306 Rises=F Damp=F
 DIIS: error= 1.70D-04 at cycle   4 NSaved=   4.
 NSaved= 4 IEnMin= 4 EnMin= -40.1748538283390     IErMin= 4 ErrMin= 1.70D-04
 ErrMax= 1.70D-04 EMaxC= 1.00D-01 BMatC= 1.55D-06 BMatP= 5.51D-05
 IDIUse=3 WtCom= 9.98D-01 WtEn= 1.70D-03
 Coeff-Com:  0.138D-01-0.654D-01-0.197D+00 0.125D+01
 Coeff-En:   0.000D+00 0.000D+00 0.000D+00 0.100D+01
 Coeff:      0.138D-01-0.653D-01-0.197D+00 0.125D+01
 Gap=     0.808 Goal=   None    Shift=    0.000
 Gap=     0.808 Goal=   None    Shift=    0.000
 RMSDP=1.00D-04 MaxDP=5.33D-04 DE=-2.20D-05 OVMax= 6.66D-04

 Cycle   5  Pass 1  IDiag  1:
 E= -40.1748548920042     Delta-E=       -0.000001063665 Rises=F Damp=F
 DIIS: error= 1.58D-05 at cycle   5 NSaved=   5.
 NSaved= 5 IEnMin= 5 EnMin= -40.1748548920042     IErMin= 5 ErrMin= 1.58D-05
 ErrMax= 1.58D-05 EMaxC= 1.00D-01 BMatC= 1.52D-08 BMatP= 1.55D-06
 IDIUse=1 WtCom= 1.00D+00 WtEn= 0.00D+00
 Coeff-Com: -0.202D-02 0.121D-01 0.256D-01-0.262D+00 0.123D+01
 Coeff:     -0.202D-02 0.121D-01 0.256D-01-0.262D+00 0.123D+01
 Gap=     0.808 Goal=   None    Shift=    0.000
 Gap=     0.808 Goal=   None    Shift=    0.000
 RMSDP=1.23D-05 MaxDP=6.86D-05 DE=-1.06D-06 OVMax= 6.12D-05

 Cycle   6  Pass 1  IDiag  1:
 E= -40.1748549011129     Delta-E=       -0.000000009109 Rises=F Damp=F
 DIIS: error= 9.20D-07 at cycle   6 NSaved=   6.
 NSaved= 6 IEnMin= 6 EnMin= -40.1748549011129     IErMin= 6 ErrMin= 9.20D-07
 ErrMax= 9.20D-07 EMaxC= 1.00D-01 BMatC= 9.71D-11 BMatP= 1.52D-08
 IDIUse=1 WtCom= 1.00D+00 WtEn= 0.00D+00
 Coeff-Com:  0.330D-03-0.209D-02-0.371D-02 0.462D-01-0.260D+00 0.122D+01
 Coeff:      0.330D-03-0.209D-02-0.371D-02 0.462D-01-0.260D+00 0.122D+01
 Gap=     0.808 Goal=   None    Shift=    0.000
 Gap=     0.808 Goal=   None    Shift=    0.000
 RMSDP=7.27D-07 MaxDP=2.83D-06 DE=-9.11D-09 OVMax= 4.33D-06

 Cycle   7  Pass 1  IDiag  1:
 E= -40.1748549011706     Delta-E=       -0.000000000058 Rises=F Damp=F
 DIIS: error= 1.40D-07 at cycle   7 NSaved=   7.
 NSaved= 7 IEnMin= 7 EnMin= -40.1748549011706     IErMin= 7 ErrMin= 1.40D-07
 ErrMax= 1.40D-07 EMaxC= 1.00D-01 BMatC= 2.08D-12 BMatP= 9.71D-11
 IDIUse=1 WtCom= 1.00D+00 WtEn= 0.00D+00
 Coeff-Com: -0.784D-04 0.469D-03 0.882D-03-0.104D-01 0.580D-01-0.344D+00
 Coeff-Com:  0.130D+01
 Coeff:     -0.784D-04 0.469D-03 0.882D-03-0.104D-01 0.580D-01-0.344D+00
 Coeff:      0.130D+01
 Gap=     0.808 Goal=   None    Shift=    0.000
 Gap=     0.808 Goal=   None    Shift=    0.000
 RMSDP=1.47D-07 MaxDP=8.19D-07 DE=-5.77D-11 OVMax= 8.97D-07

 Cycle   8  Pass 1  IDiag  1:
 E= -40.1748549011719     Delta-E=       -0.000000000001 Rises=F Damp=F
 DIIS: error= 1.40D-08 at cycle   8 NSaved=   8.
 NSaved= 8 IEnMin= 8 EnMin= -40.1748549011719     IErMin= 8 ErrMin= 1.40D-08
 ErrMax= 1.40D-08 EMaxC= 1.00D-01 BMatC= 1.74D-14 BMatP= 2.08D-12
 IDIUse=1 WtCom= 1.00D+00 WtEn= 0.00D+00
 Coeff-Com:  0.145D-04-0.833D-04-0.156D-03 0.183D-02-0.102D-01 0.649D-01
 Coeff-Com: -0.297D+00 0.124D+01
 Coeff:      0.145D-04-0.833D-04-0.156D-03 0.183D-02-0.102D-01 0.649D-01
 Coeff:     -0.297D+00 0.124D+01
 Gap=     0.808 Goal=   None    Shift=    0.000
 Gap=     0.808 Goal=   None    Shift=    0.000
 RMSDP=1.29D-08 MaxDP=7.36D-08 DE=-1.34D-12 OVMax= 7.55D-08

 Cycle   9  Pass 1  IDiag  1:
 E= -40.1748549011719     Delta-E=        0.000000000000 Rises=F Damp=F
 DIIS: error= 9.54D-10 at cycle   9 NSaved=   9.
 NSaved= 9 IEnMin= 9 EnMin= -40.1748549011719     IErMin= 9 ErrMin= 9.54D-10
 ErrMax= 9.54D-10 EMaxC= 1.00D-01 BMatC= 1.06D-16 BMatP= 1.74D-14
 IDIUse=1 WtCom= 1.00D+00 WtEn= 0.00D+00
 Coeff-Com: -0.118D-05 0.664D-05 0.119D-04-0.141D-03 0.783D-03-0.517D-02
[...]
 E= -39.8599742818007     Delta-E=       -0.000000149072 Rises=F Damp=F
 DIIS: error= 8.64D-06 at cycle   4 NSaved=   4.
 NSaved= 4 IEnMin= 4 EnMin= -39.8599742818007     IErMin= 4 ErrMin= 8.64D-06
 ErrMax= 8.64D-06 EMaxC= 1.00D-01 BMatC= 6.08D-09 BMatP= 3.49D-07
 IDIUse=1 WtCom= 1.00D+00 WtEn= 0.00D+00
 Coeff-Com:  0.161D-01-0.157D+00-0.444D-02 0.115D+01
 Coeff:      0.161D-01-0.157D+00-0.444D-02 0.115D+01
 Gap=     0.198 Goal=   None    Shift=    0.000
 Gap=     0.198 Goal=   None    Shift=    0.000
 RMSDP=9.66D-06 MaxDP=4.89D-05 DE=-1.49D-07 OVMax= 6.00D-05

 Cycle   5  Pass 1  IDiag  1:
 E= -39.8599742867941     Delta-E=       -0.000000004993 Rises=F Damp=F
 DIIS: error= 1.80D-06 at cycle   5 NSaved=   5.
 NSaved= 5 IEnMin= 5 EnMin= -39.8599742867941     IErMin= 5 ErrMin= 1.80D-06
 ErrMax= 1.80D-06 EMaxC= 1.00D-01 BMatC= 2.32D-10 BMatP= 6.08D-09
 IDIUse=1 WtCom= 1.00D+00 WtEn= 0.00D+00
 Coeff-Com:  0.136D-02 0.945D-02 0.976D-02-0.252D+00 0.123D+01
 Coeff:      0.136D-02 0.945D-02 0.976D-02-0.252D+00 0.123D+01
 Gap=     0.198 Goal=   None    Shift=    0.000
 Gap=     0.198 Goal=   None    Shift=    0.000
 RMSDP=2.64D-06 MaxDP=1.63D-05 DE=-4.99D-09 OVMax= 1.53D-05

 Cycle   6  Pass 1  IDiag  1:
 E= -39.8599742870023     Delta-E=       -0.000000000208 Rises=F Damp=F
 DIIS: error= 3.82D-07 at cycle   6 NSaved=   6.
 NSaved= 6 IEnMin= 6 EnMin= -39.8599742870023     IErMin= 6 ErrMin= 3.82D-07
 ErrMax= 3.82D-07 EMaxC= 1.00D-01 BMatC= 1.07D-11 BMatP= 2.32D-10
 IDIUse=1 WtCom= 1.00D+00 WtEn= 0.00D+00
 Coeff-Com: -0.426D-03 0.397D-03-0.773D-02 0.320D-01-0.227D+00 0.120D+01
 Coeff:     -0.426D-03 0.397D-03-0.773D-02 0.320D-01-0.227D+00 0.120D+01
 Gap=     0.198 Goal=   None    Shift=    0.000
 Gap=     0.198 Goal=   None    Shift=    0.000
 RMSDP=4.19D-07 MaxDP=2.59D-06 DE=-2.08D-10 OVMax= 2.48D-06

 Cycle   7  Pass 1  IDiag  1:
 E= -39.8599742870085     Delta-E=       -0.000000000006 Rises=F Damp=F
 DIIS: error= 1.49D-08 at cycle   7 NSaved=   7.
 NSaved= 7 IEnMin= 7 EnMin= -39.8599742870085     IErMin= 7 ErrMin= 1.49D-08
 ErrMax= 1.49D-08 EMaxC= 1.00D-01 BMatC= 2.54D-14 BMatP= 1.07D-11
 IDIUse=1 WtCom= 1.00D+00 WtEn= 0.00D+00
 Coeff-Com:  0.677D-04-0.245D-03 0.141D-02-0.230D-02 0.245D-01-0.222D+00
 Coeff-Com:  0.120D+01
 Coeff:      0.677D-04-0.245D-03 0.141D-02-0.230D-02 0.245D-01-0.222D+00
 Coeff:      0.120D+01
 Gap=     0.198 Goal=   None    Shift=    0.000
 Gap=     0.198 Goal=   None    Shift=    0.000
 RMSDP=3.05D-08 MaxDP=1.97D-07 DE=-6.19D-12 OVMax= 1.45D-07

 Cycle   8  Pass 1  IDiag  1:
 E= -39.8599742870085     Delta-E=        0.000000000000 Rises=F Damp=F
 DIIS: error= 3.94D-09 at cycle   8 NSaved=   8.
 NSaved= 8 IEnMin= 8 EnMin= -39.8599742870085     IErMin= 8 ErrMin= 3.94D-09
 ErrMax= 3.94D-09 EMaxC= 1.00D-01 BMatC= 5.77D-16 BMatP= 2.54D-14
 IDIUse=1 WtCom= 1.00D+00 WtEn= 0.00D+00
 Coeff-Com: -0.124D-04 0.472D-04-0.245D-03 0.314D-03-0.426D-02 0.438D-01
 Coeff-Com: -0.283D+00 0.124D+01
 Coeff:     -0.124D-04 0.472D-04-0.245D-03 0.314D-03-0.426D-02 0.438D-01
 Coeff:     -0.283D+00 0.124D+01
 Gap=     0.198 Goal=   None    Shift=    0.000
 Gap=     0.198 Goal=   None    Shift=    0.000
 RMSDP=2.90D-09 MaxDP=1.59D-08 DE=-3.55D-14 OVMax= 3.23D-08

 SCF Done:  E(UHF) =  -39.8599742870     A.U. after    8 cycles
             Convg  =    0.2902D-08             -V/T =  1.9996
 <Sx>= 0.0000 <Sy>= 0.0000 <Sz>= 0.0000 <S**2>= 0.0000 S= 0.0000
 <L.S>= 0.000000000000E+00
 KE= 3.987712497059D+01 PE=-1.142639888326D+02 EE= 2.341088619488D+01
 Annihilation of the first spin contaminant:
 S**2 before annihilation     0.0000,   after     0.0000
 Leave Link  502 at Sun Apr 10 20:43:00 2016, MaxMem=   33554432 cpu:       0.0
 (Enter /software/gaussian-09RevA.02-el6-x86_64/g09/l108.exe)
 Variable Step   Value    
 -------- ---- -----------
     1      30    6.803014
 Leave Link  108 at Sun Apr 10 20:43:00 2016, MaxMem=   33554432 cpu:       0.0
 (Enter /software/gaussian-09RevA.02-el6-x86_64/g09/l202.exe)
 ---------------------------------------------------------------------------------------------------
                            Z-MATRIX (ANGSTROMS AND DEGREES)
   CD    Cent   Atom    N1       Length/X        N2       Alpha/Y        N3        Beta/Z          J
 ---------------------------------------------------------------------------------------------------
      1      1  C 
      2      2  H        1   3.600000(     1)
      3      3  H        1   1.070000(     2)      2  109.471(     5)
      4      4  H        1   1.070000(     3)      3  109.471(     6)      2 -120.000(     8)      0
      5      5  H        1   1.070000(     4)      4  109.471(     7)      2 -120.000(     9)      0
 ---------------------------------------------------------------------------------------------------
                         Z-Matrix orientation:                         
 ---------------------------------------------------------------------
 Center     Atomic      Atomic             Coordinates (Angstroms)
 Number     Number       Type             X           Y           Z
 ---------------------------------------------------------------------
      1          6           0        0.000000    0.000000    0.000000
      2          1           0        0.000000    0.000000    3.600000
      3          1           0        1.008806    0.000000   -0.356667
      4          1           0       -0.504403   -0.873651   -0.356667
      5          1           0       -0.504403    0.873651   -0.356667
 ---------------------------------------------------------------------
                    Distance matrix (angstroms):
                    1          2          3          4          5
     1  C    0.000000
     2  H    3.600000   0.000000
     3  H    1.070000   4.083246   0.000000
     4  H    1.070000   4.083246   1.747303   0.000000
     5  H    1.070000   4.083246   1.747303   1.747303   0.000000
 Stoichiometry    CH4
 Framework group  C3V[C3(HC),3SGV(H)]
 Deg. of freedom     3
 Full point group                 C3V     NOp   6
 Largest Abelian subgroup         CS      NOp   2
 Largest concise Abelian subgroup CS      NOp   2
                         Standard orientation:                         
 ---------------------------------------------------------------------
 Center     Atomic      Atomic             Coordinates (Angstroms)
 Number     Number       Type             X           Y           Z
 ---------------------------------------------------------------------
      1          6           0        0.000000    0.000000    0.253000
      2          1           0        0.000000    0.000000   -3.347000
      3          1           0        0.000000    1.008806    0.609667
      4          1           0       -0.873651   -0.504403    0.609667
      5          1           0        0.873651   -0.504403    0.609667
 ---------------------------------------------------------------------
 Rotational constants (GHZ):    164.2463644     34.6649503     34.6649503
 Leave Link  202 at Sun Apr 10 20:43:00 2016, MaxMem=   33554432 cpu:       0.0
 (Enter /software/gaussian-09RevA.02-el6-x86_64/g09/l301.exe)
 Standard basis: 6-31G (6D, 7F)
 Ernie: Thresh=  0.10000D-02 Tol=  0.10000D-05 Strict=F.
 There are    13 symmetry adapted basis functions of A'  symmetry.
 There are     4 symmetry adapted basis functions of A"  symmetry.
 Integral buffers will be    131072 words long.
 Raffenetti 2 integral format.
 Two-electron integral symmetry is turned on.
    17 basis functions,    38 primitive gaussians,    17 cartesian basis functions
     5 alpha electrons        5 beta electrons
       nuclear repulsion energy        11.0813613764 Hartrees.
 IExCor=    0 DFT=F Ex=HF Corr=None ExCW=0 ScaHFX=  1.000000
 ScaDFX=  1.000000  1.000000  1.000000  1.000000 ScalE2=  1.000000  1.000000
 IRadAn=      0 IRanWt=     -1 IRanGd=            0 ICorTp=0
 NAtoms=    5 NActive=    5 NUniq=    3 SFac= 2.08D+00 NAtFMM=   80 NAOKFM=F Big=F
 Leave Link  301 at Sun Apr 10 20:43:00 2016, MaxMem=   33554432 cpu:       0.0
 (Enter /software/gaussian-09RevA.02-el6-x86_64/g09/l302.exe)
 NPDir=0 NMtPBC=     1 NCelOv=     1 NCel=       1 NClECP=     1 NCelD=      1
         NCelK=      1 NCelE2=     1 NClLst=     1 CellRange=     0.0.
 One-electron integrals computed using PRISM.
 One-electron integral symmetry used in STVInt
 NBasis=    17 RedAO= T  NBF=    13     4
 NBsUse=    17 1.00D-06 NBFU=    13     4
 Leave Link  302 at Sun Apr 10 20:43:00 2016, MaxMem=   33554432 cpu:       0.1
 (Enter /software/gaussian-09RevA.02-el6-x86_64/g09/l303.exe)
 DipDrv:  MaxL=1.
 Leave Link  303 at Sun Apr 10 20:43:00 2016, MaxMem=   33554432 cpu:       0.0
 (Enter /software/gaussian-09RevA.02-el6-x86_64/g09/l401.exe)
 Initial guess read from the read-write file.
 B after Tr=     0.000000    0.000000    0.000000
         Rot=    1.000000    0.000000    0.000000    0.000000 Ang=   0.00 deg.
 Guess basis will be translated and rotated to current coordinates.
 Initial guess orbital symmetries:
 Alpha Orbitals:
       Occupied  (A1) (A1) (E) (E) (A1)
       Virtual   (A1) (A1) (E) (E) (E) (E) (A1) (A1) (A1) (E) (E)
                 (A1)
 Beta  Orbitals:
       Occupied  (A1) (A1) (E) (E) (A1)
       Virtual   (A1) (A1) (E) (E) (E) (E) (A1) (A1) (A1) (E) (E)
                 (A1)
 The electronic state of the initial guess is 1-A1.
 Initial guess <Sx>= 0.0000 <Sy>= 0.0000 <Sz>= 0.0000 <S**2>= 0.0000 S= 0.0000
 Generating alternative initial guess.
 Harris functional with IExCor=  205 diagonalized for initial guess.
 ExpMin= 1.61D-01 ExpMax= 3.05D+03 ExpMxC= 4.57D+02 IAcc=1 IRadAn=         1 AccDes= 0.00D+00
 HarFok:  IExCor=  205 AccDes= 0.00D+00 IRadAn=         1 IDoV= 1
 ScaDFX=  1.000000  1.000000  1.000000  1.000000
 FoFCou: FMM=F IPFlag=           0 FMFlag=      100000 FMFlg1=           0
         NFxFlg=           0 DoJE=T BraDBF=F KetDBF=T FulRan=T
         Omega=  0.000000  0.000000  1.000000  0.000000  0.000000 ICntrl=     500 IOpCl=  0
         NMat0=    1 NMatS0=    1 NMatT0=    0 NMatD0=    1 NMtDS0=    0 NMtDT0=    0
         I1Cent=           4 NGrid=           0.
 Petite list used in FoFCou.
 Harris En= -40.1415146993187    
 Leave Link  401 at Sun Apr 10 20:43:00 2016, MaxMem=   33554432 cpu:       0.2
 (Enter /software/gaussian-09RevA.02-el6-x86_64/g09/l502.exe)
 UHF open shell SCF:
 Requested convergence on RMS density matrix=1.00D-08 within 128 cycles.
 Requested convergence on MAX density matrix=1.00D-06.
 Requested convergence on             energy=1.00D-06.
 No special actions if energy rises.
 Using DIIS extrapolation, IDIIS=  1040.
 Integral symmetry usage will be decided dynamically.
 Keep R1 and R2 ints in memory in canonical form, NReq=843414.
 IEnd=       19831 IEndB=       19831 NGot=    33554432 MDV=    33528114
 LenX=    33528114 LenY=    33527232
 Symmetry not used in FoFDir.
 MinBra= 0 MaxBra= 1 Meth= 1.
 IRaf=       0 NMat=   1 IRICut=       1 DoRegI=T DoRafI=F ISym2E= 0 JSym2E=0.

 Cycle   1  Pass 1  IDiag  1:
 E= -39.8537931039370    
 DIIS: error= 3.04D-04 at cycle   1 NSaved=   1.
 NSaved= 1 IEnMin= 1 EnMin= -39.8537931039370     IErMin= 1 ErrMin= 3.04D-04
 ErrMax= 3.04D-04 EMaxC= 1.00D-01 BMatC= 5.04D-06 BMatP= 5.04D-06
 IDIUse=3 WtCom= 9.97D-01 WtEn= 3.04D-03
 Coeff-Com:  0.100D+01
 Coeff-En:   0.100D+01
 Coeff:      0.100D+01
 Gap=     0.189 Goal=   None    Shift=    0.000
 Gap=     0.189 Goal=   None    Shift=    0.000
 RMSDP=1.07D-04 MaxDP=4.71D-04              OVMax= 7.58D-04

 Cycle   2  Pass 1  IDiag  1:
 E= -39.8537959519095     Delta-E=       -0.000002847972 Rises=F Damp=F
 DIIS: error= 6.95D-05 at cycle   2 NSaved=   2.
 NSaved= 2 IEnMin= 2 EnMin= -39.8537959519095     IErMin= 2 ErrMin= 6.95D-05
 ErrMax= 6.95D-05 EMaxC= 1.00D-01 BMatC= 4.87D-07 BMatP= 5.04D-06
 IDIUse=1 WtCom= 1.00D+00 WtEn= 0.00D+00
 Coeff-Com: -0.196D+00 0.120D+01
 Coeff:     -0.196D+00 0.120D+01
 Gap=     0.189 Goal=   None    Shift=    0.000
 Gap=     0.189 Goal=   None    Shift=    0.000
 RMSDP=5.36D-05 MaxDP=3.88D-04 DE=-2.85D-06 OVMax= 7.27D-04

 Cycle   3  Pass 1  IDiag  1:
 E= -39.8537960172973     Delta-E=       -0.000000065388 Rises=F Damp=F
 DIIS: error= 1.05D-04 at cycle   3 NSaved=   3.
 NSaved= 3 IEnMin= 3 EnMin= -39.8537960172973     IErMin= 2 ErrMin= 6.95D-05
 ErrMax= 1.05D-04 EMaxC= 1.00D-01 BMatC= 5.50D-07 BMatP= 4.87D-07
 IDIUse=3 WtCom= 4.93D-01 WtEn= 5.07D-01
 Coeff-Com: -0.163D+00 0.710D+00 0.453D+00
 Coeff-En:   0.000D+00 0.367D+00 0.633D+00
 Coeff:     -0.805D-01 0.536D+00 0.544D+00
 Gap=     0.189 Goal=   None    Shift=    0.000
 Gap=     0.189 Goal=   None    Shift=    0.000
 RMSDP=3.54D-05 MaxDP=3.16D-04 DE=-6.54D-08 OVMax= 6.05D-04

 Cycle   4  Pass 1  IDiag  1:
 E= -39.8537962294408     Delta-E=       -0.000000212143 Rises=F Damp=F
 DIIS: error= 3.94D-05 at cycle   4 NSaved=   4.
 NSaved= 4 IEnMin= 4 EnMin= -39.8537962294408     IErMin= 4 ErrMin= 3.94D-05
 ErrMax= 3.94D-05 EMaxC= 1.00D-01 BMatC= 8.22D-08 BMatP= 4.87D-07
 IDIUse=1 WtCom= 1.00D+00 WtEn= 0.00D+00
 Coeff-Com:  0.280D-01-0.239D+00 0.240D+00 0.972D+00
 Coeff:      0.280D-01-0.239D+00 0.240D+00 0.972D+00
 Gap=     0.189 Goal=   None    Shift=    0.000
 Gap=     0.189 Goal=   None    Shift=    0.000
 RMSDP=1.35D-05 MaxDP=8.22D-05 DE=-2.12D-07 OVMax= 1.68D-04

 Cycle   5  Pass 1  IDiag  1:
 E= -39.8537962675038     Delta-E=       -0.000000038063 Rises=F Damp=F
 DIIS: error= 1.85D-06 at cycle   5 NSaved=   5.
 NSaved= 5 IEnMin= 5 EnMin= -39.8537962675038     IErMin= 5 ErrMin= 1.85D-06
 ErrMax= 1.85D-06 EMaxC= 1.00D-01 BMatC= 1.86D-10 BMatP= 8.22D-08
 IDIUse=1 WtCom= 1.00D+00 WtEn= 0.00D+00
 Coeff-Com: -0.105D-02 0.308D-01-0.547D-01-0.227D+00 0.125D+01
 Coeff:     -0.105D-02 0.308D-01-0.547D-01-0.227D+00 0.125D+01
 Gap=     0.189 Goal=   None    Shift=    0.000
 Gap=     0.189 Goal=   None    Shift=    0.000
 RMSDP=2.55D-06 MaxDP=1.57D-05 DE=-3.81D-08 OVMax= 1.68D-05

 Cycle   6  Pass 1  IDiag  1:
 E= -39.8537962676980     Delta-E=       -0.000000000194 Rises=F Damp=F
 DIIS: error= 1.68D-06 at cycle   6 NSaved=   6.
 NSaved= 6 IEnMin= 6 EnMin= -39.8537962676980     IErMin= 6 ErrMin= 1.68D-06
 ErrMax= 1.68D-06 EMaxC= 1.00D-01 BMatC= 3.78D-11 BMatP= 1.86D-10
 IDIUse=1 WtCom= 1.00D+00 WtEn= 0.00D+00
 Coeff-Com: -0.642D-03 0.150D-01-0.276D-01-0.104D+00 0.551D+00 0.567D+00
 Coeff:     -0.642D-03 0.150D-01-0.276D-01-0.104D+00 0.551D+00 0.567D+00
 Gap=     0.189 Goal=   None    Shift=    0.000
 Gap=     0.189 Goal=   None    Shift=    0.000
 RMSDP=4.28D-07 MaxDP=4.44D-06 DE=-1.94D-10 OVMax= 8.33D-06

 Cycle   7  Pass 1  IDiag  1:
 E= -39.8537962678117     Delta-E=       -0.000000000114 Rises=F Damp=F
 DIIS: error= 2.72D-06 at cycle   7 NSaved=   7.
 NSaved= 7 IEnMin= 7 EnMin= -39.8537962678117     IErMin= 6 ErrMin= 1.68D-06
 ErrMax= 2.72D-06 EMaxC= 1.00D-01 BMatC= 1.11D-10 BMatP= 3.78D-11
 IDIUse=1 WtCom= 1.00D+00 WtEn= 0.00D+00
 Coeff-Com: -0.585D-03 0.740D-03-0.287D-02 0.192D-01-0.222D+00 0.228D+01
 Coeff-Com: -0.107D+01
 Coeff:     -0.585D-03 0.740D-03-0.287D-02 0.192D-01-0.222D+00 0.228D+01
 Coeff:     -0.107D+01
 Gap=     0.189 Goal=   None    Shift=    0.000
 Gap=     0.189 Goal=   None    Shift=    0.000
 RMSDP=7.88D-07 MaxDP=8.11D-06 DE=-1.14D-10 OVMax= 1.51D-05

 Cycle   8  Pass 1  IDiag  1:
 E= -39.8537962676703     Delta-E=        0.000000000141 Rises=F Damp=F
 DIIS: error= 3.59D-08 at cycle   8 NSaved=   8.
 NSaved= 8 IEnMin= 7 EnMin= -39.8537962678117     IErMin= 8 ErrMin= 3.59D-08
 ErrMax= 3.59D-08 EMaxC= 1.00D-01 BMatC= 4.06D-14 BMatP= 3.78D-11
 IDIUse=1 WtCom= 1.00D+00 WtEn= 0.00D+00
 Coeff-Com:  0.103D-03-0.610D-03 0.144D-02 0.101D-02 0.107D-01-0.351D+00
 Coeff-Com:  0.156D+00 0.118D+01
 Coeff:      0.103D-03-0.610D-03 0.144D-02 0.101D-02 0.107D-01-0.351D+00
 Coeff:      0.156D+00 0.118D+01
 Gap=     0.189 Goal=   None    Shift=    0.000
 Gap=     0.189 Goal=   None    Shift=    0.000
 RMSDP=3.19D-08 MaxDP=2.01D-07 DE= 1.41D-10 OVMax= 2.62D-07

 Cycle   9  Pass 1  IDiag  1:
 E= -39.8537962676704     Delta-E=        0.000000000000 Rises=F Damp=F
 DIIS: error= 3.77D-09 at cycle   9 NSaved=   9.
 NSaved= 9 IEnMin= 7 EnMin= -39.8537962678117     IErMin= 9 ErrMin= 3.77D-09
 ErrMax= 3.77D-09 EMaxC= 1.00D-01 BMatC= 8.87D-16 BMatP= 4.06D-14
 IDIUse=1 WtCom= 1.00D+00 WtEn= 0.00D+00
 Coeff-Com: -0.253D-04 0.190D-03-0.407D-03-0.610D-03 0.187D-03 0.676D-01
 Coeff-Com: -0.296D-01-0.306D+00 0.127D+01
 Coeff:     -0.253D-04 0.190D-03-0.407D-03-0.610D-03 0.187D-03 0.676D-01
 Coeff:     -0.296D-01-0.306D+00 0.127D+01
 Gap=     0.189 Goal=   None    Shift=    0.000
 Gap=     0.189 Goal=   None    Shift=    0.000
 RMSDP=3.30D-09 MaxDP=1.84D-08 DE=-2.84D-14 OVMax= 1.55D-08

 SCF Done:  E(UHF) =  -39.8537962677     A.U. after    9 cycles
             Convg  =    0.3305D-08             -V/T =  1.9992
 <Sx>= 0.0000 <Sy>= 0.0000 <Sz>= 0.0000 <S**2>= 0.0000 S= 0.0000
 <L.S>= 0.000000000000E+00
 KE= 3.988642308993D+01 PE=-1.141971124163D+02 EE= 2.337553168229D+01
 Annihilation of the first spin contaminant:
 S**2 before annihilation     0.0000,   after     0.0000
 Leave Link  502 at Sun Apr 10 20:43:00 2016, MaxMem=   33554432 cpu:       0.1
 (Enter /software/gaussian-09RevA.02-el6-x86_64/g09/l108.exe)
 Scan completed.

 Summary of the potential surface scan:
   N      B1          SCF    
 ----  ---------  -----------
    1     0.6000    -39.69819
    2     0.7000    -39.94904
    3     0.8000    -40.08179
    4     0.9000    -40.14756
    5     1.0000    -40.17485
    6     1.1000    -40.18004
    7     1.2000    -40.17271
    8     1.3000    -40.15851
    9     1.4000    -40.14076
   10     1.5000    -40.12140
   11     1.6000    -40.10156
   12     1.7000    -40.08189
   13     1.8000    -40.06274
   14     1.9000    -40.04432
   15     2.0000    -40.02674
   16     2.1000    -40.01006
   17     2.2000    -39.99430
   18     2.3000    -39.97946
   19     2.4000    -39.96553
   20     2.5000    -39.95246
   21     2.6000    -39.94021
   22     2.7000    -39.92875
   23     2.8000    -39.91802
   24     2.9000    -39.90796
   25     3.0000    -39.89855
   26     3.1000    -39.88974
   27     3.2000    -39.88150
   28     3.3000    -39.87381
   29     3.4000    -39.86664
   30     3.5000    -39.85997
   31     3.6000    -39.85380
 ----  ---------  -----------
  
 Leave Link  108 at Sun Apr 10 20:43:00 2016, MaxMem=   33554432 cpu:       0.0
 (Enter /software/gaussian-09RevA.02-el6-x86_64/g09/l9999.exe)
 1\1\GINC-MIDWAY219\Scan\UHF\6-31G\C1H4\ROOT\10-Apr-2016\1\\#p uhf/6-31
 g scan\\CH4 C-H Scan\\0,1\C\H,1,B1\H,1,B2,2,A1\H,1,B3,3,A2,2,D1,0\H,1,
 B4,4,A3,2,D2,0\\B1=0.6,s,30,0.1\B2=1.07\B3=1.07\B4=1.07\A1=109.4712206
 3\A2=109.47122063\A3=109.47122063\D1=-120.\D2=-120.\\Version=EM64L-G09
 RevA.02\State=1-A1\HF=-39.698193,-39.9490358,-40.0817855,-40.1475621,-
 40.1748549,-40.1800417,-40.1727132,-40.158514,-40.1407625,-40.1214022,
 -40.1015616,-40.081886,-40.0627381,-40.0443198,-40.0267415,-40.0100609
 ,-39.9943014,-39.9794627,-39.9655255,-39.9524569,-39.9402146,-39.92875
 08,-39.9180165,-39.9079646,-39.8985523,-39.8897423,-39.8815034,-39.873
 8097,-39.8666396,-39.8599743,-39.8537963\S2=0.,0.,0.,0.,0.,0.,0.,0.,0.
 ,0.,0.,0.,0.,0.,0.,0.,0.,0.,0.,0.,0.,0.,0.,0.,0.,0.,0.,0.,0.,0.,0.\S2-
 1=0.,0.,0.,0.,0.,0.,0.,0.,0.,0.,0.,0.,0.,0.,0.,0.,0.,0.,0.,0.,0.,0.,0.
 ,0.,0.,0.,0.,0.,0.,0.,0.\S2A=0.,0.,0.,0.,0.,0.,0.,0.,0.,0.,0.,0.,0.,0.
 ,0.,0.,0.,0.,0.,0.,0.,0.,0.,0.,0.,0.,0.,0.,0.,0.,0.\RMSD=3.226e-09,6.1
 13e-09,4.641e-09,1.079e-09,9.115e-10,3.112e-09,7.250e-10,6.711e-10,7.0
 61e-10,9.691e-09,9.296e-09,9.018e-09,8.338e-09,7.096e-09,5.516e-09,3.8
 98e-09,2.444e-09,1.392e-09,2.048e-09,8.278e-10,2.452e-09,4.522e-09,4.8
 71e-09,2.434e-09,3.632e-09,2.781e-09,5.455e-09,4.441e-09,5.551e-09,2.9
 02e-09,3.305e-09\PG=C03V [C3(H1C1),3SGV(H1)]\\@


 HE THAT FOLLOWS NATURE IS NEVER LOST.

                             -- BACON
 Job cpu time:  0 days  0 hours  0 minutes 20.5 seconds.
 File lengths (MBytes):  RWF=     87 Int=      0 D2E=      0 Chk=      2 Scr=      2
 Normal termination of Gaussian 09 at Sun Apr 10 20:43:00 2016.
