 Entering Gaussian System, Link 0=g09
 Input=ch4scan.inp
 Output=ch4scan.log
 Initial command:
 /software/gaussian-09RevA.02-el6-x86_64/g09/l1.exe /home/ilariamerutka/scratch-midway/gaussian-work/Gau-2402.inp -scrdir=/home/ilariamerutka/scratch-midway/gaussian-work/
 Entering Link 1 = /software/gaussian-09RevA.02-el6-x86_64/g09/l1.exe PID=      2403.
  
 Copyright (c) 1988,1990,1992,1993,1995,1998,2003,2009, Gaussian, Inc.
                  All Rights Reserved.
  
 This is part of the Gaussian(R) 09 program.  It is based on
 the Gaussian(R) 03 system (copyright 2003, Gaussian, Inc.),
 the Gaussian(R) 98 system (copyright 1998, Gaussian, Inc.),
 the Gaussian(R) 94 system (copyright 1995, Gaussian, Inc.),
 the Gaussian 92(TM) system (copyright 1992, Gaussian, Inc.),
 the Gaussian 90(TM) system (copyright 1990, Gaussian, Inc.),
 the Gaussian 88(TM) system (copyright 1988, Gaussian, Inc.),
 the Gaussian 86(TM) system (copyright 1986, Carnegie Mellon
 University), and the Gaussian 82(TM) system (copyright 1983,
 Carnegie Mellon University). Gaussian is a federally registered
 trademark of Gaussian, Inc.
  
 This software contains proprietary and confidential information,
 including trade secrets, belonging to Gaussian, Inc.
  
 This software is provided under written license and may be
 used, copied, transmitted, or stored only in accord with that
 written license.
  
 The following legend is applicable only to US Government
 contracts under FAR:
  
                    RESTRICTED RIGHTS LEGEND
  
 Use, reproduction and disclosure by the US Government is
 subject to restrictions as set forth in subparagraphs (a)
 and (c) of the Commercial Computer Software - Restricted
 Rights clause in FAR 52.227-19.
  
 Gaussian, Inc.
 340 Quinnipiac St., Bldg. 40, Wallingford CT 06492
  
  
 ---------------------------------------------------------------
 Warning -- This program may not be used in any manner that
 competes with the business of Gaussian, Inc. or will provide
 assistance to any competitor of Gaussian, Inc.  The licensee
 of this program is prohibited from giving any competitor of
 Gaussian, Inc. access to this program.  By using this program,
 the user acknowledges that Gaussian, Inc. is engaged in the
 business of creating and licensing software in the field of
 computational chemistry and represents and warrants to the
 licensee that it is not a competitor of Gaussian, Inc. and that
 it will not use this program in any manner prohibited above.
 ---------------------------------------------------------------
  

 Cite this work as:
 Gaussian 09, Revision A.02,
 M. J. Frisch, G. W. Trucks, H. B. Schlegel, G. E. Scuseria, 
 M. A. Robb, J. R. Cheeseman, G. Scalmani, V. Barone, B. Mennucci, 
 G. A. Petersson, H. Nakatsuji, M. Caricato, X. Li, H. P. Hratchian, 
 A. F. Izmaylov, J. Bloino, G. Zheng, J. L. Sonnenberg, M. Hada, 
 M. Ehara, K. Toyota, R. Fukuda, J. Hasegawa, M. Ishida, T. Nakajima, 
 Y. Honda, O. Kitao, H. Nakai, T. Vreven, J. A. Montgomery, Jr., 
 J. E. Peralta, F. Ogliaro, M. Bearpark, J. J. Heyd, E. Brothers, 
 K. N. Kudin, V. N. Staroverov, R. Kobayashi, J. Normand, 
 K. Raghavachari, A. Rendell, J. C. Burant, S. S. Iyengar, J. Tomasi, 
 M. Cossi, N. Rega, J. M. Millam, M. Klene, J. E. Knox, J. B. Cross, 
 V. Bakken, C. Adamo, J. Jaramillo, R. Gomperts, R. E. Stratmann, 
 O. Yazyev, A. J. Austin, R. Cammi, C. Pomelli, J. W. Ochterski, 
 R. L. Martin, K. Morokuma, V. G. Zakrzewski, G. A. Voth, 
 P. Salvador, J. J. Dannenberg, S. Dapprich, A. D. Daniels, 
 O. Farkas, J. B. Foresman, J. V. Ortiz, J. Cioslowski, 
 and D. J. Fox, Gaussian, Inc., Wallingford CT, 2009.
 
 ******************************************
 Gaussian 09:  EM64L-G09RevA.02 11-Jun-2009
                10-Apr-2016 
 ******************************************
 %chk=H20_MC
 -----------------------------
 #p CASSCF(6,4)/3-21G Opt Freq
 -----------------------------
 1/18=20,19=15,38=1/1,3;
 2/9=110,12=2,17=6,18=5,40=1/2;
 3/5=5,16=1,25=1,32=1,71=1,116=201/1,2,3;
 4/17=6,18=4/1,5;
 5/5=2,17=1000000,38=5/10;
 6/7=2,8=2,9=2,10=2,28=1/1;
 7//1,2,3,16;
 1/18=20,19=15/3(2);
 2/9=110/2;
 99//99;
 2/9=110/2;
 3/5=5,16=1,25=1,32=1,71=1,116=201/1,2,3;
 4/5=5,16=3,17=6,18=4/1,5;
 5/5=2,17=1000000,23=1,38=5/10;
 7//1,2,3,16;
 1/18=20,19=15/3(-5);
 2/9=110/2;
 6/7=2,8=2,9=2,10=2,19=2,28=1/1;
 99/9=1/99;
 Leave Link    1 at Sun Apr 10 22:18:19 2016, MaxMem=          0 cpu:       0.0
 (Enter /software/gaussian-09RevA.02-el6-x86_64/g09/l101.exe)
 ---------------
 H20 MCSCF/3-21G
 ---------------
 Symbolic Z-matrix:
 Charge =  0 Multiplicity = 1
 O
 H                    1    ROH
 H                    1    ROH      2    AHOH
       Variables:
  ROH                   0.95                     
  AHOH                105.                       
 
 NAtoms=      3 NQM=      3 NQMF=      0 NMic=      0 NMicF=      0 NTot=      3.
                    Isotopes and Nuclear Properties:
 (Nuclear quadrupole moments (NQMom) in fm**2, nuclear magnetic moments (NMagM)
  in nuclear magnetons)

  Atom         1           2           3
 IAtWgt=          16           1           1
 AtmWgt=  15.9949146   1.0078250   1.0078250
 NucSpn=           0           1           1
 AtZEff=   0.0000000   0.0000000   0.0000000
 NQMom=    0.0000000   0.0000000   0.0000000
 NMagM=    0.0000000   2.7928460   2.7928460
 Leave Link  101 at Sun Apr 10 22:18:19 2016, MaxMem=   33554432 cpu:       0.2
 (Enter /software/gaussian-09RevA.02-el6-x86_64/g09/l103.exe)

 GradGradGradGradGradGradGradGradGradGradGradGradGradGradGradGradGradGrad
 Berny optimization.
 Initialization pass.
                           ----------------------------
                           !    Initial Parameters    !
                           ! (Angstroms and Degrees)  !
 --------------------------                            --------------------------
 ! Name  Definition              Value          Derivative Info.                !
 --------------------------------------------------------------------------------
 ! R1    R(1,2)                  0.95           estimate D2E/DX2                !
 ! R2    R(1,3)                  0.95           estimate D2E/DX2                !
 ! A1    A(2,1,3)              105.0            estimate D2E/DX2                !
 --------------------------------------------------------------------------------
 Trust Radius=3.00D-01 FncErr=1.00D-07 GrdErr=1.00D-07
 Number of steps in this run=  20 maximum allowed number of steps= 100.
 GradGradGradGradGradGradGradGradGradGradGradGradGradGradGradGradGradGrad

 Leave Link  103 at Sun Apr 10 22:18:19 2016, MaxMem=   33554432 cpu:       0.0
 (Enter /software/gaussian-09RevA.02-el6-x86_64/g09/l202.exe)
                          Input orientation:                          
 ---------------------------------------------------------------------
 Center     Atomic      Atomic             Coordinates (Angstroms)
 Number     Number       Type             X           Y           Z
 ---------------------------------------------------------------------
      1          8           0        0.000000    0.000000    0.000000
      2          1           0        0.000000    0.000000    0.950000
      3          1           0        0.917630    0.000000   -0.245878
 ---------------------------------------------------------------------
                    Distance matrix (angstroms):
                    1          2          3
     1  O    0.000000
     2  H    0.950000   0.000000
     3  H    0.950000   1.507371   0.000000
 Stoichiometry    H2O
 Framework group  C2V[C2(O),SGV(H2)]
 Deg. of freedom     2
 Full point group                 C2V     NOp   4
 Largest Abelian subgroup         C2V     NOp   4
 Largest concise Abelian subgroup C2      NOp   2
                         Standard orientation:                         
 ---------------------------------------------------------------------
 Center     Atomic      Atomic             Coordinates (Angstroms)
 Number     Number       Type             X           Y           Z
 ---------------------------------------------------------------------
      1          8           0        0.000000    0.000000    0.115665
      2          1           0        0.000000    0.753686   -0.462659
      3          1           0        0.000000   -0.753686   -0.462659
 ---------------------------------------------------------------------
 Rotational constants (GHZ):    844.1235066    441.3890322    289.8352574
 Leave Link  202 at Sun Apr 10 22:18:19 2016, MaxMem=   33554432 cpu:       0.0
 (Enter /software/gaussian-09RevA.02-el6-x86_64/g09/l301.exe)
 Standard basis: 3-21G (6D, 7F)
 Ernie: Thresh=  0.10000D-02 Tol=  0.10000D-05 Strict=F.
 There are     7 symmetry adapted basis functions of A1  symmetry.
 There are     0 symmetry adapted basis functions of A2  symmetry.
 There are     2 symmetry adapted basis functions of B1  symmetry.
 There are     4 symmetry adapted basis functions of B2  symmetry.
 Integral buffers will be    131072 words long.
 Regular integral format.
 Two-electron integral symmetry is turned off.
    13 basis functions,    21 primitive gaussians,    13 cartesian basis functions
     5 alpha electrons        5 beta electrons
       nuclear repulsion energy         9.2635178676 Hartrees.
 IExCor=    0 DFT=F Ex=HF Corr=None ExCW=0 ScaHFX=  1.000000
 ScaDFX=  1.000000  1.000000  1.000000  1.000000 ScalE2=  1.000000  1.000000
 IRadAn=      0 IRanWt=     -1 IRanGd=            0 ICorTp=0
 NAtoms=    3 NActive=    3 NUniq=    2 SFac= 1.69D+00 NAtFMM=   80 NAOKFM=F Big=F
 Leave Link  301 at Sun Apr 10 22:18:20 2016, MaxMem=   33554432 cpu:       0.1
 (Enter /software/gaussian-09RevA.02-el6-x86_64/g09/l302.exe)
 NPDir=0 NMtPBC=     1 NCelOv=     1 NCel=       1 NClECP=     1 NCelD=      1
         NCelK=      1 NCelE2=     1 NClLst=     1 CellRange=     0.0.
 One-electron integrals computed using PRISM.
 The smallest eigenvalue of the overlap matrix is  1.065D-01
 NBasis=    13 RedAO= F  NBF=     7     0     2     4
 NBsUse=    13 1.00D-04 NBFU=     7     0     2     4
 Leave Link  302 at Sun Apr 10 22:18:20 2016, MaxMem=   33554432 cpu:       0.2
 (Enter /software/gaussian-09RevA.02-el6-x86_64/g09/l303.exe)
 DipDrv:  MaxL=1.
 Leave Link  303 at Sun Apr 10 22:18:20 2016, MaxMem=   33554432 cpu:       0.1
 (Enter /software/gaussian-09RevA.02-el6-x86_64/g09/l401.exe)
 Harris functional with IExCor=  205 diagonalized for initial guess.
 ExpMin= 1.83D-01 ExpMax= 3.22D+02 ExpMxC= 3.22D+02 IAcc=1 IRadAn=         1 AccDes= 0.00D+00
 HarFok:  IExCor=  205 AccDes= 0.00D+00 IRadAn=         1 IDoV= 1
 ScaDFX=  1.000000  1.000000  1.000000  1.000000
 FoFCou: FMM=F IPFlag=           0 FMFlag=      100000 FMFlg1=           0
         NFxFlg=           0 DoJE=T BraDBF=F KetDBF=T FulRan=T
         Omega=  0.000000  0.000000  1.000000  0.000000  0.000000 ICntrl=     500 IOpCl=  0
         NMat0=    1 NMatS0=    1 NMatT0=    0 NMatD0=    1 NMtDS0=    0 NMtDT0=    0
         I1Cent=           4 NGrid=           0.
 Petite list used in FoFCou.
 Harris En= -75.6826767197137    
 Initial guess orbital symmetries:
       Occupied  (A1) (A1) (B2) (A1) (B1)
       Virtual   (A1) (B2) (B2) (A1) (B1) (A1) (B2) (A1)
 The electronic state of the initial guess is 1-A1.
 Leave Link  401 at Sun Apr 10 22:18:20 2016, MaxMem=   33554432 cpu:       0.2
 (Enter /software/gaussian-09RevA.02-el6-x86_64/g09/l405.exe)
          Truncation Level=               99999
          a=  3          b=  0          c=  1
          a=N/2 - s   b=2s   c=n- (a+b)
          no. active orbitals (n)  4
          no. active ELECTRONS (N)=  6
                                                  IRREPS TO BE RETAINED = 1 2 3 4
                                                  GROUP IRREP. MULT. TABLE
                                                      1    2    3    4
                                                      2    1    4    3
                                                      3    4    1    2
                                                      4    3    2    1
                                                  IRREP. LABELS FOR ORBITALS
                                                   4 1 3 1
          BOTTOM WEIGHT= 12     TOP WEIGHT= 18
          Configuration         1 Symmetry 1 1110
          Configuration         2 Symmetry 3 11ab
          Configuration         3 Symmetry 1 1101
          Configuration         4 Symmetry 1 1a1b
          Configuration         5 Symmetry 3 1ab1
          Configuration         6 Symmetry 4 a11b
          Configuration         7 Symmetry 1 1011
          Configuration         8 Symmetry 2 a1b1
          Configuration         9 Symmetry 4 ab11
          Configuration        10 Symmetry 1 0111
          NO OF BASIS FUNCTIONS =        10 NO TO BE DELETED =    0
 CI Matrix Elements calculated here
          NO. OF CONFIGURATIONS IN REFERENCE SPACE =    1
                                   SECONDARY SPACE =   10
                                   TERTIARY SPACE =   10
          NO. OF ORBITALS =    4
          NO. OF ELECTRONS =    6
          NO. OF WEIGHTS =    7
          REFERENCE STATE CONFIGURATIONS ARE:     0
          NO. OF CORE ORBITALS =    0
          OPTION:  NON-DIAGONAL HOLE LINE INTERACTIONS INCLUDED
 Len28=        2263 LenMCI=         885.
 Leave Link  405 at Sun Apr 10 22:18:21 2016, MaxMem=   33554432 cpu:       0.4
 (Enter /software/gaussian-09RevA.02-el6-x86_64/g09/l510.exe)
 Enter MCSCF program.
 NO. OF ORBITALS = 13     NO. OF CORE-ORBITALS =  2
 NO. OF VALENCE-ORBITALS =  4      NO. OF VIRTUAL-ORBITALS =  7
 USED ACCURACY IN CHECKING CONVERGENCE =  1.00D-08
  Memory needed for Incore Integrals:                  266330
  Integrals KEPT IN MEMORY
 IBUJAK length=                    2002
 Integral file not found: evaluate integrals 
 Symmetry not used in FoFDir.
 MinBra= 0 MaxBra= 1 Meth= 1.
 IRaf=       0 NMat=   1 IRICut=       1 DoRegI=T DoRafI=F ISym2E= 0 JSym2E=0.
 Defining IBUGAM
 2ND ORD PT ENERGY     CV   -0.009527   CU   -0.004920   UV   -0.084244
 TOTAL                     -75.628422
 ITN=  1 MaxIt= 64 E=    -75.5297311607 DE=-7.55D+01 Acc= 1.00D-08 Lan=  0
 ITN=  2 MaxIt= 64 E=    -75.5897464714 DE=-6.00D-02 Acc= 1.00D-08 Lan=  0
 ITN=  3 MaxIt= 64 E=    -75.5973604473 DE=-7.61D-03 Acc= 1.00D-08 Lan=  0
 ITN=  4 MaxIt= 64 E=    -75.5988163797 DE=-1.46D-03 Acc= 1.00D-08 Lan=  0
 ITN=  5 MaxIt= 64 E=    -75.5994184767 DE=-6.02D-04 Acc= 1.00D-08 Lan=  0
 ITN=  6 MaxIt= 64 E=    -75.5997008219 DE=-2.82D-04 Acc= 1.00D-08 Lan=  0
 ITN=  7 MaxIt= 64 E=    -75.5998368499 DE=-1.36D-04 Acc= 1.00D-08 Lan=  0
 ITN=  8 MaxIt= 64 E=    -75.5998989715 DE=-6.21D-05 Acc= 1.00D-08 Lan=  0
 ITN=  9 MaxIt= 64 E=    -75.5999264007 DE=-2.74D-05 Acc= 1.00D-08 Lan=  0
 ITN= 10 MaxIt= 64 E=    -75.5999383359 DE=-1.19D-05 Acc= 1.00D-08 Lan=  0
 ITN= 11 MaxIt= 64 E=    -75.5999435158 DE=-5.18D-06 Acc= 1.00D-08 Lan=  0
 ITN= 12 MaxIt= 64 E=    -75.5999457739 DE=-2.26D-06 Acc= 1.00D-08 Lan=  0
 ITN= 13 MaxIt= 64 E=    -75.5999467666 DE=-9.93D-07 Acc= 1.00D-08 Lan=  0
 ITN= 14 MaxIt= 64 E=    -75.5999472076 DE=-4.41D-07 Acc= 1.00D-08 Lan=  0
 ITN= 15 MaxIt= 64 E=    -75.5999474057 DE=-1.98D-07 Acc= 1.00D-08 Lan=  0
 ITN= 16 MaxIt= 64 E=    -75.5999474957 DE=-9.00D-08 Acc= 1.00D-08 Lan=  0
 ITN= 17 MaxIt= 64 E=    -75.5999475369 DE=-4.13D-08 Acc= 1.00D-08 Lan=  0
 ITN= 18 MaxIt= 64 E=    -75.5999475560 DE=-1.91D-08 Acc= 1.00D-08 Lan=  0
 ITN= 19 MaxIt= 64 E=    -75.5999475650 DE=-8.92D-09 Acc= 1.00D-08 Lan=  0
 ... Do an extra-iteration for final printing.


                    EIGENVALUES AND  EIGENVECTORS OF CI MATRIX



   ( 1)     EIGENVALUE     -75.5999475692
 (    1) 0.9968850 (    7)-0.0710642 (   10)-0.0296974 (    3)-0.0169792 (    4) 0.0000116 (    9) 0.0000000 (    6) 0.0000000
 (    8) 0.0000000 (    5) 0.0000000 (    2) 0.0000000 (
 Final one electron symbolic density matrix:
                1             2             3             4 
      1  0.199824D+01
      2  0.300627D-10  0.198990D+01
      3  0.856005D-15 -0.199370D-16  0.199942D+01
      4  0.285316D-10 -0.303886D-04  0.787494D-16  0.124407D-01
 MCSCF converged.
 Leave Link  510 at Sun Apr 10 22:18:21 2016, MaxMem=   33554432 cpu:       0.4
 (Enter /software/gaussian-09RevA.02-el6-x86_64/g09/l601.exe)
 Copying SCF densities to generalized density rwf, IOpCl= 0 IROHF=3.

 **********************************************************************

            Population analysis using the SCF density.

 **********************************************************************

 Orbital symmetries:
       Occupied  (A1) (A1) (B2) (A1) (B1)
       Virtual   (A1) (B2) (B2) (A1) (B1) (A1) (B2) (A1)
 The electronic state is 1-A1.
 Alpha  occ. eigenvalues --    0.00000   0.00000   0.00000   0.00000   0.00000
 Alpha virt. eigenvalues --    0.00000   0.00000   0.00000   0.00000   0.00000
 Alpha virt. eigenvalues --    0.00000   0.00000   0.00000
          Condensed to atoms (all electrons):
              1          2          3
     1  O    8.187078   0.262867   0.262867
     2  H    0.262867   0.421701  -0.040975
     3  H    0.262867  -0.040975   0.421701
 Mulliken atomic charges:
              1
     1  O   -0.712813
     2  H    0.356407
     3  H    0.356407
 Sum of Mulliken atomic charges =   0.00000
 Mulliken charges with hydrogens summed into heavy atoms:
              1
     1  O    0.000000
 Sum of Mulliken charges with hydrogens summed into heavy atoms =   0.00000
 Electronic spatial extent (au):  <R**2>=             18.4465
 Charge=              0.0000 electrons
 Dipole moment (field-independent basis, Debye):
    X=              0.0000    Y=              0.0000    Z=             -2.3957  Tot=              2.3957
 Quadrupole moment (field-independent basis, Debye-Ang):
   XX=             -6.8001   YY=             -4.1625   ZZ=             -5.8215
   XY=              0.0000   XZ=              0.0000   YZ=              0.0000
 Traceless Quadrupole moment (field-independent basis, Debye-Ang):
   XX=             -1.2054   YY=              1.4322   ZZ=             -0.2268
   XY=              0.0000   XZ=              0.0000   YZ=              0.0000
 Octapole moment (field-independent basis, Debye-Ang**2):
  XXX=              0.0000  YYY=              0.0000  ZZZ=             -1.2147  XYY=              0.0000
  XXY=              0.0000  XXZ=             -0.3153  XZZ=              0.0000  YZZ=              0.0000
  YYZ=             -1.1292  XYZ=              0.0000
 Hexadecapole moment (field-independent basis, Debye-Ang**3):
 XXXX=             -4.1671 YYYY=             -5.4313 ZZZZ=             -5.2561 XXXY=              0.0000
 XXXZ=              0.0000 YYYX=              0.0000 YYYZ=              0.0000 ZZZX=              0.0000
 ZZZY=              0.0000 XXYY=             -1.8171 XXZZ=             -1.6145 YYZZ=             -1.4988
 XXYZ=              0.0000 YYXZ=              0.0000 ZZXY=              0.0000
 N-N= 9.263517867595D+00 E-N=-1.982845536538D+02  KE= 7.553530546637D+01
 No NMR shielding tensors so no spin-rotation constants.
 Leave Link  601 at Sun Apr 10 22:18:21 2016, MaxMem=   33554432 cpu:       0.1
 (Enter /software/gaussian-09RevA.02-el6-x86_64/g09/l701.exe)
 Compute integral first derivatives.
 ... and contract with generalized density number  0.
 Leave Link  701 at Sun Apr 10 22:18:21 2016, MaxMem=   33554432 cpu:       0.1
 (Enter /software/gaussian-09RevA.02-el6-x86_64/g09/l702.exe)
 TWLDRV:  FMTGEN WAS CALLED        67 TIMES.
 Leave Link  702 at Sun Apr 10 22:18:22 2016, MaxMem=   33554432 cpu:       0.1
 (Enter /software/gaussian-09RevA.02-el6-x86_64/g09/l703.exe)
 Compute integral first derivatives, UseDBF=F ICtDFT=           0.
 DF integral derivatives using scalar Rys method.
 Standard cutoffs used.
 PQCut1= 1.00D-20 PQCut2= 1.00D-20 PQCut3= 1.00D+02 PQCut4= 1.00D-20
 DPHNIX:  FAST PASSES=       0
 RysSet:  KIntrp=        0   KCalc=        0   KAssym=        0
 Leave Link  703 at Sun Apr 10 22:18:22 2016, MaxMem=   33554432 cpu:       0.0
 (Enter /software/gaussian-09RevA.02-el6-x86_64/g09/l716.exe)
 Dipole        =-6.68961536D-16 1.20123911D-11-9.42522845D-01
 ***** Axes restored to original set *****
 -------------------------------------------------------------------
 Center     Atomic                   Forces (Hartrees/Bohr)
 Number     Number              X              Y              Z
 -------------------------------------------------------------------
      1        8          -0.016178969    0.000000000   -0.012414560
      2        1          -0.007496741    0.000000000    0.026519645
      3        1           0.023675711    0.000000000   -0.014105086
 -------------------------------------------------------------------
 Cartesian Forces:  Max     0.026519645 RMS     0.014662370
 Leave Link  716 at Sun Apr 10 22:18:22 2016, MaxMem=   33554432 cpu:       0.0
 (Enter /software/gaussian-09RevA.02-el6-x86_64/g09/l103.exe)

 GradGradGradGradGradGradGradGradGradGradGradGradGradGradGradGradGradGrad
 Berny optimization.
 Internal  Forces:  Max     0.026519645 RMS     0.023005166
 Search for a local minimum.
 Step number   1 out of a maximum of   20
 All quantities printed in internal units (Hartrees-Bohrs-Radians)
 RMS Force = .23005D-01 SwitMx=.10000D-02 MixMth= 1
 Mixed Optimization -- RFO/linear search
 Second derivative matrix not updated -- first step.
 The second derivative matrix:
                          R1        R2        A1
           R1           0.57681
           R2           0.00000   0.57681
           A1           0.00000   0.00000   0.16000
     Eigenvalues ---    0.16000   0.57681   0.57681
 RFO step:  Lambda=-3.53133293D-03 EMin= 1.60000000D-01
 Linear search not attempted -- first point.
 Iteration  1 RMS(Cart)=  0.06788928 RMS(Int)=  0.00170697
 Iteration  2 RMS(Cart)=  0.00114581 RMS(Int)=  0.00000126
 Iteration  3 RMS(Cart)=  0.00000142 RMS(Int)=  0.00000000
 Iteration  4 RMS(Cart)=  0.00000000 RMS(Int)=  0.00000000
 ClnCor:  largest displacement from symmetrization is 3.49D-11 for atom     3.
 Variable       Old X    -DE/DX   Delta X   Delta X   Delta X     New X
                                 (Linear)    (Quad)   (Total)
    R1        1.79524   0.02652   0.00000   0.04570   0.04570   1.84094
    R2        1.79524   0.02652   0.00000   0.04570   0.04570   1.84094
    A1        1.83260   0.01346   0.00000   0.08230   0.08230   1.91489
         Item               Value     Threshold  Converged?
 Maximum Force            0.026520     0.000450     NO 
 RMS     Force            0.023005     0.000300     NO 
 Maximum Displacement     0.071096     0.001800     NO 
 RMS     Displacement     0.068060     0.001200     NO 
 Predicted change in Energy=-1.784997D-03
 GradGradGradGradGradGradGradGradGradGradGradGradGradGradGradGradGradGrad

 Leave Link  103 at Sun Apr 10 22:18:22 2016, MaxMem=   33554432 cpu:       0.0
 (Enter /software/gaussian-09RevA.02-el6-x86_64/g09/l202.exe)
                          Input orientation:                          
 ---------------------------------------------------------------------
 Center     Atomic      Atomic             Coordinates (Angstroms)
 Number     Number       Type             X           Y           Z
 ---------------------------------------------------------------------
      1          8           0        0.009296    0.000000    0.007133
      2          1           0       -0.030780    0.000000    0.980490
      3          1           0        0.939114    0.000000   -0.283501
 ---------------------------------------------------------------------
                    Distance matrix (angstroms):
                    1          2          3
     1  O    0.000000
     2  H    0.974182   0.000000
     3  H    0.974182   1.593225   0.000000
 Stoichiometry    H2O
 Framework group  C2V[C2(O),SGV(H2)]
 Deg. of freedom     2
 Full point group                 C2V     NOp   4
 Largest Abelian subgroup         C2V     NOp   4
 Largest concise Abelian subgroup C2      NOp   2
                         Standard orientation:                         
 ---------------------------------------------------------------------
 Center     Atomic      Atomic             Coordinates (Angstroms)
 Number     Number       Type             X           Y           Z
 ---------------------------------------------------------------------
      1          8           0        0.000000    0.000000    0.112150
      2          1           0        0.000000    0.796613   -0.448598
      3          1           0        0.000000   -0.796613   -0.448598
 ---------------------------------------------------------------------
 Rotational constants (GHZ):    897.8671798    395.1007117    274.3671858
 Leave Link  202 at Sun Apr 10 22:18:22 2016, MaxMem=   33554432 cpu:       0.0
 (Enter /software/gaussian-09RevA.02-el6-x86_64/g09/l301.exe)
 Standard basis: 3-21G (6D, 7F)
 Ernie: Thresh=  0.10000D-02 Tol=  0.10000D-05 Strict=F.
 There are     7 symmetry adapted basis functions of A1  symmetry.
 There are     0 symmetry adapted basis functions of A2  symmetry.
 There are     2 symmetry adapted basis functions of B1  symmetry.
 There are     4 symmetry adapted basis functions of B2  symmetry.
 Integral buffers will be    131072 words long.
 Regular integral format.
 Two-electron integral symmetry is turned off.
    13 basis functions,    21 primitive gaussians,    13 cartesian basis functions
     5 alpha electrons        5 beta electrons
       nuclear repulsion energy         9.0233713698 Hartrees.
 IExCor=    0 DFT=F Ex=HF Corr=None ExCW=0 ScaHFX=  1.000000
 ScaDFX=  1.000000  1.000000  1.000000  1.000000 ScalE2=  1.000000  1.000000
 IRadAn=      0 IRanWt=     -1 IRanGd=            0 ICorTp=0
 NAtoms=    3 NActive=    3 NUniq=    2 SFac= 1.69D+00 NAtFMM=   80 NAOKFM=F Big=F
 Leave Link  301 at Sun Apr 10 22:18:22 2016, MaxMem=   33554432 cpu:       0.1
 (Enter /software/gaussian-09RevA.02-el6-x86_64/g09/l302.exe)
 NPDir=0 NMtPBC=     1 NCelOv=     1 NCel=       1 NClECP=     1 NCelD=      1
         NCelK=      1 NCelE2=     1 NClLst=     1 CellRange=     0.0.
 One-electron integrals computed using PRISM.
 The smallest eigenvalue of the overlap matrix is  1.126D-01
 NBasis=    13 RedAO= F  NBF=     7     0     2     4
 NBsUse=    13 1.00D-04 NBFU=     7     0     2     4
 Leave Link  302 at Sun Apr 10 22:18:22 2016, MaxMem=   33554432 cpu:       0.1
 (Enter /software/gaussian-09RevA.02-el6-x86_64/g09/l303.exe)
 DipDrv:  MaxL=1.
 Leave Link  303 at Sun Apr 10 22:18:22 2016, MaxMem=   33554432 cpu:       0.0
 (Enter /software/gaussian-09RevA.02-el6-x86_64/g09/l401.exe)
 Initial guess read from the read-write file.
 B after Tr=     0.000000    0.000000    0.000000
         Rot=    1.000000    0.000000    0.000000    0.000000 Ang=   0.00 deg.
 Guess basis will be translated and rotated to current coordinates.
 Initial guess orbital symmetries:
       Occupied  (A1) (A1) (B2) (A1) (B1)
       Virtual   (A1) (B2) (B2) (A1) (B1) (A1) (B2) (A1)
 The electronic state of the initial guess is 1-A1.
 Generating alternative initial guess.
 Harris functional with IExCor=  205 diagonalized for initial guess.
 ExpMin= 1.83D-01 ExpMax= 3.22D+02 ExpMxC= 3.22D+02 IAcc=1 IRadAn=         1 AccDes= 0.00D+00
 HarFok:  IExCor=  205 AccDes= 0.00D+00 IRadAn=         1 IDoV= 1
 ScaDFX=  1.000000  1.000000  1.000000  1.000000
 FoFCou: FMM=F IPFlag=           0 FMFlag=      100000 FMFlg1=           0
         NFxFlg=           0 DoJE=T BraDBF=F KetDBF=T FulRan=T
         Omega=  0.000000  0.000000  1.000000  0.000000  0.000000 ICntrl=     500 IOpCl=  0
         NMat0=    1 NMatS0=    1 NMatT0=    0 NMatD0=    1 NMtDS0=    0 NMtDT0=    0
         I1Cent=           4 NGrid=           0.
 Petite list used in FoFCou.
 Harris En= -75.6843951419735    
 Leave Link  401 at Sun Apr 10 22:18:22 2016, MaxMem=   33554432 cpu:       0.2
 (Enter /software/gaussian-09RevA.02-el6-x86_64/g09/l405.exe)
          Truncation Level=               99999
          a=  3          b=  0          c=  1
          a=N/2 - s   b=2s   c=n- (a+b)
          no. active orbitals (n)  4
          no. active ELECTRONS (N)=  6
                                                  IRREPS TO BE RETAINED = 1 2 3 4
                                                  GROUP IRREP. MULT. TABLE
                                                      1    2    3    4
                                                      2    1    4    3
                                                      3    4    1    2
                                                      4    3    2    1
                                                  IRREP. LABELS FOR ORBITALS
                                                   4 1 3 1
          BOTTOM WEIGHT= 12     TOP WEIGHT= 18
          Configuration         1 Symmetry 1 1110
          Configuration         2 Symmetry 3 11ab
          Configuration         3 Symmetry 1 1101
          Configuration         4 Symmetry 1 1a1b
          Configuration         5 Symmetry 3 1ab1
          Configuration         6 Symmetry 4 a11b
          Configuration         7 Symmetry 1 1011
          Configuration         8 Symmetry 2 a1b1
          Configuration         9 Symmetry 4 ab11
          Configuration        10 Symmetry 1 0111
          NO OF BASIS FUNCTIONS =        10 NO TO BE DELETED =    0
 CI Matrix Elements calculated here
          NO. OF CONFIGURATIONS IN REFERENCE SPACE =    1
                                   SECONDARY SPACE =   10
                                   TERTIARY SPACE =   10
          NO. OF ORBITALS =    4
          NO. OF ELECTRONS =    6
          NO. OF WEIGHTS =    7
          REFERENCE STATE CONFIGURATIONS ARE:     0
          NO. OF CORE ORBITALS =    0
          OPTION:  NON-DIAGONAL HOLE LINE INTERACTIONS INCLUDED
 Len28=        2263 LenMCI=         885.
 Leave Link  405 at Sun Apr 10 22:18:22 2016, MaxMem=   33554432 cpu:       0.2
 (Enter /software/gaussian-09RevA.02-el6-x86_64/g09/l510.exe)
 Enter MCSCF program.
 NO. OF ORBITALS = 13     NO. OF CORE-ORBITALS =  2
 NO. OF VALENCE-ORBITALS =  4      NO. OF VIRTUAL-ORBITALS =  7
 USED ACCURACY IN CHECKING CONVERGENCE =  1.00D-08
  Memory needed for Incore Integrals:                  266330
  Integrals KEPT IN MEMORY
 IBUJAK length=                    2002
 Integral file not found: evaluate integrals 
 Symmetry not used in FoFDir.
 MinBra= 0 MaxBra= 1 Meth= 1.
 IRaf=       0 NMat=   1 IRICut=       1 DoRegI=T DoRafI=F ISym2E= 0 JSym2E=0.
 2ND ORD PT ENERGY     CV   -0.000005   CU   -0.000012   UV   -0.000365
 TOTAL                     -75.601236
 ITN=  1 MaxIt= 64 E=    -75.6008534175 DE=-7.56D+01 Acc= 1.00D-08 Lan=  0
 ITN=  2 MaxIt= 64 E=    -75.6012714645 DE=-4.18D-04 Acc= 1.00D-08 Lan=  0
 ITN=  3 MaxIt= 64 E=    -75.6012977018 DE=-2.62D-05 Acc= 1.00D-08 Lan=  0
 ITN=  4 MaxIt= 64 E=    -75.6013012471 DE=-3.55D-06 Acc= 1.00D-08 Lan=  0
 ITN=  5 MaxIt= 64 E=    -75.6013018811 DE=-6.34D-07 Acc= 1.00D-08 Lan=  0
 ITN=  6 MaxIt= 64 E=    -75.6013020400 DE=-1.59D-07 Acc= 1.00D-08 Lan=  0
 ITN=  7 MaxIt= 64 E=    -75.6013020944 DE=-5.44D-08 Acc= 1.00D-08 Lan=  0
 ITN=  8 MaxIt= 64 E=    -75.6013021170 DE=-2.26D-08 Acc= 1.00D-08 Lan=  0
 ITN=  9 MaxIt= 64 E=    -75.6013021272 DE=-1.02D-08 Acc= 1.00D-08 Lan=  0
 ITN= 10 MaxIt= 64 E=    -75.6013021320 DE=-4.80D-09 Acc= 1.00D-08 Lan=  0
 ... Do an extra-iteration for final printing.


                    EIGENVALUES AND  EIGENVECTORS OF CI MATRIX



   ( 1)     EIGENVALUE     -75.6013021343
 (    1) 0.9965252 (    7)-0.0745436 (   10)-0.0326770 (    3)-0.0176908 (    4) 0.0000127 (    9) 0.0000000 (    6) 0.0000000
 (    8) 0.0000000 (    5) 0.0000000 (    2) 0.0000000 (
 Final one electron symbolic density matrix:
                1             2             3             4 
      1  0.199786D+01
      2 -0.837439D-13  0.198889D+01
      3  0.245083D-14  0.874743D-18  0.199937D+01
      4  0.723365D-13 -0.331543D-04  0.568195D-17  0.138750D-01
 MCSCF converged.
 Leave Link  510 at Sun Apr 10 22:18:23 2016, MaxMem=   33554432 cpu:       0.3
 (Enter /software/gaussian-09RevA.02-el6-x86_64/g09/l701.exe)
 Compute integral first derivatives.
 ... and contract with generalized density number  0.
 Leave Link  701 at Sun Apr 10 22:18:23 2016, MaxMem=   33554432 cpu:       0.1
 (Enter /software/gaussian-09RevA.02-el6-x86_64/g09/l702.exe)
 TWLDRV:  FMTGEN WAS CALLED        80 TIMES.
 Leave Link  702 at Sun Apr 10 22:18:23 2016, MaxMem=   33554432 cpu:       0.1
 (Enter /software/gaussian-09RevA.02-el6-x86_64/g09/l703.exe)
 Compute integral first derivatives, UseDBF=F ICtDFT=           0.
 DF integral derivatives using scalar Rys method.
 Standard cutoffs used.
 PQCut1= 1.00D-20 PQCut2= 1.00D-20 PQCut3= 1.00D+02 PQCut4= 1.00D-20
 DPHNIX:  FAST PASSES=       0
 RysSet:  KIntrp=        0   KCalc=        0   KAssym=        0
 Leave Link  703 at Sun Apr 10 22:18:23 2016, MaxMem=   33554432 cpu:       0.0
 (Enter /software/gaussian-09RevA.02-el6-x86_64/g09/l716.exe)
 Dipole        =-6.50378722D-16-2.50910404D-14-9.13358444D-01
 ***** Axes restored to original set *****
 -------------------------------------------------------------------
 Center     Atomic                   Forces (Hartrees/Bohr)
 Number     Number              X              Y              Z
 -------------------------------------------------------------------
      1        8          -0.003035590    0.000000000   -0.002329290
      2        1           0.003703681    0.000000000   -0.001684057
      3        1          -0.000668091    0.000000000    0.004013347
 -------------------------------------------------------------------
 Cartesian Forces:  Max     0.004013347 RMS     0.002303307
 Leave Link  716 at Sun Apr 10 22:18:23 2016, MaxMem=   33554432 cpu:       0.0
 (Enter /software/gaussian-09RevA.02-el6-x86_64/g09/l103.exe)

 GradGradGradGradGradGradGradGradGradGradGradGradGradGradGradGradGradGrad
 Berny optimization.
 Using GEDIIS/GDIIS optimizer.
 Internal  Forces:  Max     0.006684933 RMS     0.004140158
 Search for a local minimum.
 Step number   2 out of a maximum of   20
 All quantities printed in internal units (Hartrees-Bohrs-Radians)
 RMS Force = .41402D-02 SwitMx=.10000D-02 MixMth= 1
 Mixed Optimization -- RFO/linear search
 Update second derivatives using D2CorX and points    1    2
 DE= -1.35D-03 DEPred=-1.78D-03 R= 7.59D-01
 SS=  1.41D+00  RLast= 1.05D-01 DXNew= 5.0454D-01 3.1392D-01
 Trust test= 7.59D-01 RLast= 1.05D-01 DXMaxT set to 3.14D-01
 The second derivative matrix:
                          R1        R2        A1
           R1           0.56710
           R2          -0.00971   0.56710
           A1           0.03504   0.03504   0.20585
 Use linear search instead of GDIIS.
     Eigenvalues ---    0.19899   0.56424   0.57681
 RFO step:  Lambda=-1.05256725D-04 EMin= 1.98993355D-01
 Quartic linear search produced a step of -0.17972.
 Iteration  1 RMS(Cart)=  0.01935506 RMS(Int)=  0.00021294
 Iteration  2 RMS(Cart)=  0.00018136 RMS(Int)=  0.00000000
 Iteration  3 RMS(Cart)=  0.00000000 RMS(Int)=  0.00000000
 ClnCor:  largest displacement from symmetrization is 6.14D-12 for atom     3.
 Variable       Old X    -DE/DX   Delta X   Delta X   Delta X     New X
                                 (Linear)    (Quad)   (Total)
    R1        1.84094  -0.00183  -0.00821   0.00669  -0.00152   1.83941
    R2        1.84094  -0.00183  -0.00821   0.00669  -0.00152   1.83941
    A1        1.91489  -0.00668  -0.01479  -0.01883  -0.03362   1.88128
         Item               Value     Threshold  Converged?
 Maximum Force            0.006685     0.000450     NO 
 RMS     Force            0.004140     0.000300     NO 
 Maximum Displacement     0.020198     0.001800     NO 
 RMS     Displacement     0.019440     0.001200     NO 
 Predicted change in Energy=-1.091220D-04
 GradGradGradGradGradGradGradGradGradGradGradGradGradGradGradGradGradGrad

 Leave Link  103 at Sun Apr 10 22:18:23 2016, MaxMem=   33554432 cpu:       0.0
 (Enter /software/gaussian-09RevA.02-el6-x86_64/g09/l202.exe)
                          Input orientation:                          
 ---------------------------------------------------------------------
 Center     Atomic      Atomic             Coordinates (Angstroms)
 Number     Number       Type             X           Y           Z
 ---------------------------------------------------------------------
      1          8           0        0.002507    0.000000    0.001923
      2          1           0       -0.021183    0.000000    0.975011
      3          1           0        0.936306    0.000000   -0.272813
 ---------------------------------------------------------------------
                    Distance matrix (angstroms):
                    1          2          3
     1  O    0.000000
     2  H    0.973376   0.000000
     3  H    0.973376   1.572847   0.000000
 Stoichiometry    H2O
 Framework group  C2V[C2(O),SGV(H2)]
 Deg. of freedom     2
 Full point group                 C2V     NOp   4
 Largest Abelian subgroup         C2V     NOp   4
 Largest concise Abelian subgroup C2      NOp   2
                         Standard orientation:                         
 ---------------------------------------------------------------------
 Center     Atomic      Atomic             Coordinates (Angstroms)
 Number     Number       Type             X           Y           Z
 ---------------------------------------------------------------------
      1          8           0        0.000000    0.000000    0.114717
      2          1           0        0.000000    0.786424   -0.458867
      3          1           0        0.000000   -0.786424   -0.458867
 ---------------------------------------------------------------------
 Rotational constants (GHZ):    858.1308346    405.4049455    275.3309322
 Leave Link  202 at Sun Apr 10 22:18:23 2016, MaxMem=   33554432 cpu:       0.0
 (Enter /software/gaussian-09RevA.02-el6-x86_64/g09/l301.exe)
 Standard basis: 3-21G (6D, 7F)
 Ernie: Thresh=  0.10000D-02 Tol=  0.10000D-05 Strict=F.
 There are     7 symmetry adapted basis functions of A1  symmetry.
 There are     0 symmetry adapted basis functions of A2  symmetry.
 There are     2 symmetry adapted basis functions of B1  symmetry.
 There are     4 symmetry adapted basis functions of B2  symmetry.
 Integral buffers will be    131072 words long.
 Regular integral format.
 Two-electron integral symmetry is turned off.
    13 basis functions,    21 primitive gaussians,    13 cartesian basis functions
     5 alpha electrons        5 beta electrons
       nuclear repulsion energy         9.0348690170 Hartrees.
 IExCor=    0 DFT=F Ex=HF Corr=None ExCW=0 ScaHFX=  1.000000
 ScaDFX=  1.000000  1.000000  1.000000  1.000000 ScalE2=  1.000000  1.000000
 IRadAn=      0 IRanWt=     -1 IRanGd=            0 ICorTp=0
 NAtoms=    3 NActive=    3 NUniq=    2 SFac= 1.69D+00 NAtFMM=   80 NAOKFM=F Big=F
 Leave Link  301 at Sun Apr 10 22:18:23 2016, MaxMem=   33554432 cpu:       0.1
 (Enter /software/gaussian-09RevA.02-el6-x86_64/g09/l302.exe)
 NPDir=0 NMtPBC=     1 NCelOv=     1 NCel=       1 NClECP=     1 NCelD=      1
         NCelK=      1 NCelE2=     1 NClLst=     1 CellRange=     0.0.
 One-electron integrals computed using PRISM.
 The smallest eigenvalue of the overlap matrix is  1.120D-01
 NBasis=    13 RedAO= F  NBF=     7     0     2     4
 NBsUse=    13 1.00D-04 NBFU=     7     0     2     4
 Leave Link  302 at Sun Apr 10 22:18:23 2016, MaxMem=   33554432 cpu:       0.2
 (Enter /software/gaussian-09RevA.02-el6-x86_64/g09/l303.exe)
 DipDrv:  MaxL=1.
 Leave Link  303 at Sun Apr 10 22:18:23 2016, MaxMem=   33554432 cpu:       0.0
 (Enter /software/gaussian-09RevA.02-el6-x86_64/g09/l401.exe)
 Initial guess read from the read-write file.
 B after Tr=     0.000000    0.000000    0.000000
         Rot=    1.000000    0.000000    0.000000    0.000000 Ang=   0.00 deg.
 Guess basis will be translated and rotated to current coordinates.
 Initial guess orbital symmetries:
       Occupied  (A1) (A1) (B2) (A1) (B1)
       Virtual   (A1) (B2) (B2) (A1) (B1) (A1) (B2) (A1)
 The electronic state of the initial guess is 1-A1.
 Generating alternative initial guess.
 Harris functional with IExCor=  205 diagonalized for initial guess.
 ExpMin= 1.83D-01 ExpMax= 3.22D+02 ExpMxC= 3.22D+02 IAcc=1 IRadAn=         1 AccDes= 0.00D+00
 HarFok:  IExCor=  205 AccDes= 0.00D+00 IRadAn=         1 IDoV= 1
 ScaDFX=  1.000000  1.000000  1.000000  1.000000
 FoFCou: FMM=F IPFlag=           0 FMFlag=      100000 FMFlg1=           0
         NFxFlg=           0 DoJE=T BraDBF=F KetDBF=T FulRan=T
         Omega=  0.000000  0.000000  1.000000  0.000000  0.000000 ICntrl=     500 IOpCl=  0
         NMat0=    1 NMatS0=    1 NMatT0=    0 NMatD0=    1 NMtDS0=    0 NMtDT0=    0
         I1Cent=           4 NGrid=           0.
 Petite list used in FoFCou.
 Harris En= -75.6842779159810    
 Leave Link  401 at Sun Apr 10 22:18:24 2016, MaxMem=   33554432 cpu:       0.2
 (Enter /software/gaussian-09RevA.02-el6-x86_64/g09/l405.exe)
          Truncation Level=               99999
          a=  3          b=  0          c=  1
          a=N/2 - s   b=2s   c=n- (a+b)
          no. active orbitals (n)  4
          no. active ELECTRONS (N)=  6
                                                  IRREPS TO BE RETAINED = 1 2 3 4
                                                  GROUP IRREP. MULT. TABLE
                                                      1    2    3    4
                                                      2    1    4    3
                                                      3    4    1    2
                                                      4    3    2    1
                                                  IRREP. LABELS FOR ORBITALS
                                                   4 1 3 1
          BOTTOM WEIGHT= 12     TOP WEIGHT= 18
          Configuration         1 Symmetry 1 1110
          Configuration         2 Symmetry 3 11ab
          Configuration         3 Symmetry 1 1101
          Configuration         4 Symmetry 1 1a1b
          Configuration         5 Symmetry 3 1ab1
          Configuration         6 Symmetry 4 a11b
          Configuration         7 Symmetry 1 1011
          Configuration         8 Symmetry 2 a1b1
          Configuration         9 Symmetry 4 ab11
          Configuration        10 Symmetry 1 0111
          NO OF BASIS FUNCTIONS =        10 NO TO BE DELETED =    0
 CI Matrix Elements calculated here
          NO. OF CONFIGURATIONS IN REFERENCE SPACE =    1
                                   SECONDARY SPACE =   10
                                   TERTIARY SPACE =   10
          NO. OF ORBITALS =    4
          NO. OF ELECTRONS =    6
          NO. OF WEIGHTS =    7
          REFERENCE STATE CONFIGURATIONS ARE:     0
          NO. OF CORE ORBITALS =    0
          OPTION:  NON-DIAGONAL HOLE LINE INTERACTIONS INCLUDED
 Len28=        2263 LenMCI=         885.
 Leave Link  405 at Sun Apr 10 22:18:24 2016, MaxMem=   33554432 cpu:       0.4
 (Enter /software/gaussian-09RevA.02-el6-x86_64/g09/l510.exe)
 Enter MCSCF program.
 NO. OF ORBITALS = 13     NO. OF CORE-ORBITALS =  2
 NO. OF VALENCE-ORBITALS =  4      NO. OF VIRTUAL-ORBITALS =  7
 USED ACCURACY IN CHECKING CONVERGENCE =  1.00D-08
  Memory needed for Incore Integrals:                  266330
  Integrals KEPT IN MEMORY
 IBUJAK length=                    2002
 Integral file not found: evaluate integrals 
 Symmetry not used in FoFDir.
 MinBra= 0 MaxBra= 1 Meth= 1.
 IRaf=       0 NMat=   1 IRICut=       1 DoRegI=T DoRafI=F ISym2E= 0 JSym2E=0.
 2ND ORD PT ENERGY     CV   -0.000006   CU   -0.000004   UV   -0.000009
 TOTAL                     -75.601410
 ITN=  1 MaxIt= 64 E=    -75.6013912478 DE=-7.56D+01 Acc= 1.00D-08 Lan=  0
 ITN=  2 MaxIt= 64 E=    -75.6014153899 DE=-2.41D-05 Acc= 1.00D-08 Lan=  0
 ITN=  3 MaxIt= 64 E=    -75.6014187005 DE=-3.31D-06 Acc= 1.00D-08 Lan=  0
 ITN=  4 MaxIt= 64 E=    -75.6014195673 DE=-8.67D-07 Acc= 1.00D-08 Lan=  0
 ITN=  5 MaxIt= 64 E=    -75.6014199010 DE=-3.34D-07 Acc= 1.00D-08 Lan=  0
 ITN=  6 MaxIt= 64 E=    -75.6014200507 DE=-1.50D-07 Acc= 1.00D-08 Lan=  0
 ITN=  7 MaxIt= 64 E=    -75.6014201213 DE=-7.05D-08 Acc= 1.00D-08 Lan=  0
 ITN=  8 MaxIt= 64 E=    -75.6014201550 DE=-3.37D-08 Acc= 1.00D-08 Lan=  0
 ITN=  9 MaxIt= 64 E=    -75.6014201711 DE=-1.62D-08 Acc= 1.00D-08 Lan=  0
 ITN= 10 MaxIt= 64 E=    -75.6014201789 DE=-7.78D-09 Acc= 1.00D-08 Lan=  0
 ... Do an extra-iteration for final printing.


                    EIGENVALUES AND  EIGENVECTORS OF CI MATRIX



   ( 1)     EIGENVALUE     -75.6014201827
 (    1) 0.9965514 (    7)-0.0744477 (   10)-0.0321204 (    3)-0.0176381 (    4) 0.0000157 (    9) 0.0000000 (    6) 0.0000000
 (    8) 0.0000000 (    5) 0.0000000 (    2) 0.0000000 (
 Final one electron symbolic density matrix:
                1             2             3             4 
      1  0.199794D+01
      2 -0.350956D-12  0.198892D+01
      3 -0.290366D-14  0.885681D-18  0.199938D+01
      4  0.312637D-12 -0.409471D-04  0.564536D-17  0.137706D-01
 MCSCF converged.
 Leave Link  510 at Sun Apr 10 22:18:24 2016, MaxMem=   33554432 cpu:       0.4
 (Enter /software/gaussian-09RevA.02-el6-x86_64/g09/l701.exe)
 Compute integral first derivatives.
 ... and contract with generalized density number  0.
 Leave Link  701 at Sun Apr 10 22:18:24 2016, MaxMem=   33554432 cpu:       0.1
 (Enter /software/gaussian-09RevA.02-el6-x86_64/g09/l702.exe)
 TWLDRV:  FMTGEN WAS CALLED        77 TIMES.
 Leave Link  702 at Sun Apr 10 22:18:25 2016, MaxMem=   33554432 cpu:       0.1
 (Enter /software/gaussian-09RevA.02-el6-x86_64/g09/l703.exe)
 Compute integral first derivatives, UseDBF=F ICtDFT=           0.
 DF integral derivatives using scalar Rys method.
 Standard cutoffs used.
 PQCut1= 1.00D-20 PQCut2= 1.00D-20 PQCut3= 1.00D+02 PQCut4= 1.00D-20
 DPHNIX:  FAST PASSES=       0
 RysSet:  KIntrp=        0   KCalc=        0   KAssym=        0
 Leave Link  703 at Sun Apr 10 22:18:25 2016, MaxMem=   33554432 cpu:       0.0
 (Enter /software/gaussian-09RevA.02-el6-x86_64/g09/l716.exe)
 Dipole        =-6.43773510D-16-1.35669254D-13-9.25447825D-01
 ***** Axes restored to original set *****
 -------------------------------------------------------------------
 Center     Atomic                   Forces (Hartrees/Bohr)
 Number     Number              X              Y              Z
 -------------------------------------------------------------------
      1        8          -0.000349194    0.000000000   -0.000267946
      2        1           0.000064039    0.000000000    0.000278055
      3        1           0.000285155    0.000000000   -0.000010109
 -------------------------------------------------------------------
 Cartesian Forces:  Max     0.000349194 RMS     0.000199043
 Leave Link  716 at Sun Apr 10 22:18:25 2016, MaxMem=   33554432 cpu:       0.1
 (Enter /software/gaussian-09RevA.02-el6-x86_64/g09/l103.exe)

 GradGradGradGradGradGradGradGradGradGradGradGradGradGradGradGradGradGrad
 Berny optimization.
 Using GEDIIS/GDIIS optimizer.
 Internal  Forces:  Max     0.000276414 RMS     0.000237882
 Search for a local minimum.
 Step number   3 out of a maximum of   20
 All quantities printed in internal units (Hartrees-Bohrs-Radians)
 RMS Force = .23788D-03 SwitMx=.10000D-02 MixMth= 2
 Mixed Optimization -- En-DIIS/RFO-DIIS
 Update second derivatives using D2CorX and points    1    2    3
 DE= -1.18D-04 DEPred=-1.09D-04 R= 1.08D+00
 SS=  1.41D+00  RLast= 3.37D-02 DXNew= 5.2795D-01 1.0106D-01
 Trust test= 1.08D+00 RLast= 3.37D-02 DXMaxT set to 3.14D-01
 The second derivative matrix:
                          R1        R2        A1
           R1           0.56579
           R2          -0.01102   0.56579
           A1           0.03768   0.03768   0.19156
 Use linear search instead of GDIIS.
     Eigenvalues ---    0.18390   0.56243   0.57681
 RFO step:  Lambda=-3.69285637D-07 EMin= 1.83902502D-01
 Quartic linear search produced a step of  0.01513.
 Iteration  1 RMS(Cart)=  0.00046514 RMS(Int)=  0.00000021
 Iteration  2 RMS(Cart)=  0.00000024 RMS(Int)=  0.00000000
 ClnCor:  largest displacement from symmetrization is 7.33D-13 for atom     3.
 Variable       Old X    -DE/DX   Delta X   Delta X   Delta X     New X
                                 (Linear)    (Quad)   (Total)
    R1        1.83941   0.00028  -0.00002   0.00058   0.00056   1.83997
    R2        1.83941   0.00028  -0.00002   0.00058   0.00056   1.83997
    A1        1.88128  -0.00013  -0.00051  -0.00037  -0.00088   1.88039
         Item               Value     Threshold  Converged?
 Maximum Force            0.000276     0.000450     YES
 RMS     Force            0.000238     0.000300     YES
 Maximum Displacement     0.000521     0.001800     YES
 RMS     Displacement     0.000465     0.001200     YES
 Predicted change in Energy=-2.131663D-07
 Optimization completed.
    -- Stationary point found.
                           ----------------------------
                           !   Optimized Parameters   !
                           ! (Angstroms and Degrees)  !
 --------------------------                            --------------------------
 ! Name  Definition              Value          Derivative Info.                !
 --------------------------------------------------------------------------------
 ! R1    R(1,2)                  0.9734         -DE/DX =    0.0003              !
 ! R2    R(1,3)                  0.9734         -DE/DX =    0.0003              !
 ! A1    A(2,1,3)              107.7892         -DE/DX =   -0.0001              !
 --------------------------------------------------------------------------------
 GradGradGradGradGradGradGradGradGradGradGradGradGradGradGradGradGradGrad

 Largest change from initial coordinates is atom    3       0.033 Angstoms.
 Leave Link  103 at Sun Apr 10 22:18:25 2016, MaxMem=   33554432 cpu:       0.0
 (Enter /software/gaussian-09RevA.02-el6-x86_64/g09/l202.exe)
                          Input orientation:                          
 ---------------------------------------------------------------------
 Center     Atomic      Atomic             Coordinates (Angstroms)
 Number     Number       Type             X           Y           Z
 ---------------------------------------------------------------------
      1          8           0        0.002507    0.000000    0.001923
      2          1           0       -0.021183    0.000000    0.975011
      3          1           0        0.936306    0.000000   -0.272813
 ---------------------------------------------------------------------
                    Distance matrix (angstroms):
                    1          2          3
     1  O    0.000000
     2  H    0.973376   0.000000
     3  H    0.973376   1.572847   0.000000
 Stoichiometry    H2O
 Framework group  C2V[C2(O),SGV(H2)]
 Deg. of freedom     2
 Full point group                 C2V     NOp   4
 Largest Abelian subgroup         C2V     NOp   4
 Largest concise Abelian subgroup C2      NOp   2
                         Standard orientation:                         
 ---------------------------------------------------------------------
 Center     Atomic      Atomic             Coordinates (Angstroms)
 Number     Number       Type             X           Y           Z
 ---------------------------------------------------------------------
      1          8           0        0.000000    0.000000    0.114717
      2          1           0        0.000000    0.786424   -0.458867
      3          1           0        0.000000   -0.786424   -0.458867
 ---------------------------------------------------------------------
 Rotational constants (GHZ):    858.1308346    405.4049455    275.3309322
 Leave Link  202 at Sun Apr 10 22:18:25 2016, MaxMem=   33554432 cpu:       0.0
 (Enter /software/gaussian-09RevA.02-el6-x86_64/g09/l601.exe)
 Copying SCF densities to generalized density rwf, IOpCl= 0 IROHF=3.

 **********************************************************************

            Population analysis using the SCF density.

 **********************************************************************

 Orbital symmetries:
       Occupied  (A1) (A1) (B2) (A1) (B1)
       Virtual   (A1) (B2) (B2) (A1) (B1) (A1) (B2) (A1)
 The electronic state is 1-A1.
 Alpha  occ. eigenvalues --    0.00000   0.00000   0.00000   0.00000   0.00000
 Alpha virt. eigenvalues --    0.00000   0.00000   0.00000   0.00000   0.00000
 Alpha virt. eigenvalues --    0.00000   0.00000   0.00000
          Condensed to atoms (all electrons):
              1          2          3
     1  O    8.194750   0.257973   0.257973
     2  H    0.257973   0.422804  -0.036124
     3  H    0.257973  -0.036124   0.422804
 Mulliken atomic charges:
              1
     1  O   -0.710695
     2  H    0.355348
     3  H    0.355348
 Sum of Mulliken atomic charges =   0.00000
 Mulliken charges with hydrogens summed into heavy atoms:
              1
     1  O    0.000000
 Sum of Mulliken charges with hydrogens summed into heavy atoms =   0.00000
 Electronic spatial extent (au):  <R**2>=             18.7538
 Charge=              0.0000 electrons
 Dipole moment (field-independent basis, Debye):
    X=              0.0000    Y=              0.0000    Z=             -2.3523  Tot=              2.3523
 Quadrupole moment (field-independent basis, Debye-Ang):
   XX=             -6.8501   YY=             -4.0118   ZZ=             -5.8930
   XY=              0.0000   XZ=              0.0000   YZ=              0.0000
 Traceless Quadrupole moment (field-independent basis, Debye-Ang):
   XX=             -1.2651   YY=              1.5731   ZZ=             -0.3080
   XY=              0.0000   XZ=              0.0000   YZ=              0.0000
 Octapole moment (field-independent basis, Debye-Ang**2):
  XXX=              0.0000  YYY=              0.0000  ZZZ=             -1.1337  XYY=              0.0000
  XXY=              0.0000  XXZ=             -0.2895  XZZ=              0.0000  YZZ=              0.0000
  YYZ=             -1.2000  XYZ=              0.0000
 Hexadecapole moment (field-independent basis, Debye-Ang**3):
 XXXX=             -4.2216 YYYY=             -5.5760 ZZZZ=             -5.3454 XXXY=              0.0000
 XXXZ=              0.0000 YYYX=              0.0000 YYYZ=              0.0000 ZZZX=              0.0000
 ZZZY=              0.0000 XXYY=             -1.8956 XXZZ=             -1.6369 YYZZ=             -1.5390
 XXYZ=              0.0000 YYXZ=              0.0000 ZZXY=              0.0000
 N-N= 9.034869017026D+00 E-N=-1.977974437065D+02  KE= 7.544124843751D+01
 No NMR shielding tensors so no spin-rotation constants.
 Leave Link  601 at Sun Apr 10 22:18:25 2016, MaxMem=   33554432 cpu:       0.1
 (Enter /software/gaussian-09RevA.02-el6-x86_64/g09/l9999.exe)
 B after Tr=     0.173407    0.000000    0.133060
         Rot=   -0.312745    0.634185   -0.634185   -0.312745 Ang= 216.45 deg.
 Final structure in terms of initial Z-matrix:
 O
 H,1,ROH
 H,1,ROH,2,AHOH
      Variables:
 ROH=0.97337584
 AHOH=107.78915433
 1\1\GINC-MIDWAY219\FOpt\CASSCF\3-21G\H2O1\ROOT\10-Apr-2016\0\\#p CASSC
 F(6,4)/3-21G Opt Freq\\H20 MCSCF/3-21G\\0,1\O,0.0025066929,0.,0.001923
 4531\H,-0.0211828999,0.,0.9750109732\H,0.936305742,0.,-0.2728125192\\V
 ersion=EM64L-G09RevA.02\State=1-A1\HF=-75.6014202\RMSD=0.000e+00\RMSF=
 1.990e-04\Dipole=0.7342071,0.,0.5633769\Quadrupole=0.28931,-0.9405992,
 0.6512893,0.,-0.6754626,0.\PG=C02V [C2(O1),SGV(H2)]\\@


 CHEMISTRY BEGAN BY SAYING IT WOULD CHANGE THE BASER
 METALS INTO GOLD.  BY NOT DOING THAT IT HAS DONE MUCH
 GREATER THINGS.  --  RALPH WALDO EMERSON
 Leave Link 9999 at Sun Apr 10 22:18:25 2016, MaxMem=   33554432 cpu:       0.1
 Job cpu time:  0 days  0 hours  0 minutes  5.3 seconds.
 File lengths (MBytes):  RWF=     82 Int=      0 D2E=      0 Chk=      2 Scr=      2
 Normal termination of Gaussian 09 at Sun Apr 10 22:18:25 2016.
 (Enter /software/gaussian-09RevA.02-el6-x86_64/g09/l1.exe)
 Link1:  Proceeding to internal job step number  2.
 -----------------------------------------------------------------
 #P Geom=AllCheck Guess=TCheck SCRF=Check GenChk CASSCF/3-21G Freq
 -----------------------------------------------------------------
 1/10=4,29=7,30=1,38=1,40=1/1,3;
 2/12=2,40=1/2;
 3/5=5,14=-4,16=1,25=1,32=1,70=2,71=2,116=201/1,2,3;
 4/5=101,17=6,18=4/1,5;
 5/5=2,17=1000200,98=1/10;
 8/6=4,10=90,11=11/1;
 11/42=1,45=1/1;
 10/6=1/3;
 6/7=2,8=2,9=2,10=2,18=1,28=1/1;
 7/8=1,10=1,25=1/1,2,3,16;
 1/10=4,30=1/3;
 99//99;
 Leave Link    1 at Sun Apr 10 22:18:25 2016, MaxMem=          0 cpu:       0.0
 (Enter /software/gaussian-09RevA.02-el6-x86_64/g09/l101.exe)
 ---------------
 H20 MCSCF/3-21G
 ---------------
 Redundant internal coordinates taken from checkpoint file:
 H20_MC.chk
 Charge =  0 Multiplicity = 1
 O,0,0.0025066929,0.,0.0019234531
 H,0,-0.0211828999,0.,0.9750109732
 H,0,0.936305742,0.,-0.2728125192
 Recover connectivity data from disk.
                    Isotopes and Nuclear Properties:
 (Nuclear quadrupole moments (NQMom) in fm**2, nuclear magnetic moments (NMagM)
  in nuclear magnetons)

  Atom         1           2           3
 IAtWgt=          16           1           1
 AtmWgt=  15.9949146   1.0078250   1.0078250
 NucSpn=           0           1           1
 AtZEff=  -5.6000000  -1.0000000  -1.0000000
 NQMom=    0.0000000   0.0000000   0.0000000
 NMagM=    0.0000000   2.7928460   2.7928460
 Leave Link  101 at Sun Apr 10 22:18:25 2016, MaxMem=   33554432 cpu:       0.2
 (Enter /software/gaussian-09RevA.02-el6-x86_64/g09/l103.exe)

 GradGradGradGradGradGradGradGradGradGradGradGradGradGradGradGradGradGrad
 Berny optimization.
 Initialization pass.
                           ----------------------------
                           !    Initial Parameters    !
                           ! (Angstroms and Degrees)  !
 --------------------------                            --------------------------
 ! Name  Definition              Value          Derivative Info.                !
 --------------------------------------------------------------------------------
 ! R1    R(1,2)                  0.9734         calculate D2E/DX2 analytically  !
 ! R2    R(1,3)                  0.9734         calculate D2E/DX2 analytically  !
 ! A1    A(2,1,3)              107.7892         calculate D2E/DX2 analytically  !
 --------------------------------------------------------------------------------
 Trust Radius=3.00D-01 FncErr=1.00D-07 GrdErr=1.00D-07
 Number of steps in this run=   2 maximum allowed number of steps=   2.
 GradGradGradGradGradGradGradGradGradGradGradGradGradGradGradGradGradGrad

 Leave Link  103 at Sun Apr 10 22:18:25 2016, MaxMem=   33554432 cpu:       0.0
 (Enter /software/gaussian-09RevA.02-el6-x86_64/g09/l202.exe)
                          Input orientation:                          
 ---------------------------------------------------------------------
 Center     Atomic      Atomic             Coordinates (Angstroms)
 Number     Number       Type             X           Y           Z
 ---------------------------------------------------------------------
      1          8           0        0.002507    0.000000    0.001923
      2          1           0       -0.021183    0.000000    0.975011
      3          1           0        0.936306    0.000000   -0.272813
 ---------------------------------------------------------------------
                    Distance matrix (angstroms):
                    1          2          3
     1  O    0.000000
     2  H    0.973376   0.000000
     3  H    0.973376   1.572847   0.000000
 Stoichiometry    H2O
 Framework group  C2V[C2(O),SGV(H2)]
 Deg. of freedom     2
 Full point group                 C2V     NOp   4
 Largest Abelian subgroup         C2V     NOp   4
 Largest concise Abelian subgroup C2      NOp   2
                         Standard orientation:                         
 ---------------------------------------------------------------------
 Center     Atomic      Atomic             Coordinates (Angstroms)
 Number     Number       Type             X           Y           Z
 ---------------------------------------------------------------------
      1          8           0        0.000000    0.000000    0.114717
      2          1           0        0.000000    0.786424   -0.458867
      3          1           0        0.000000   -0.786424   -0.458867
 ---------------------------------------------------------------------
 Rotational constants (GHZ):    858.1308346    405.4049455    275.3309322
 Leave Link  202 at Sun Apr 10 22:18:25 2016, MaxMem=   33554432 cpu:       0.0
 (Enter /software/gaussian-09RevA.02-el6-x86_64/g09/l301.exe)
 Standard basis: 3-21G (6D, 7F)
 Ernie: Thresh=  0.10000D-02 Tol=  0.10000D-05 Strict=F.
 There are     7 symmetry adapted basis functions of A1  symmetry.
 There are     0 symmetry adapted basis functions of A2  symmetry.
 There are     2 symmetry adapted basis functions of B1  symmetry.
 There are     4 symmetry adapted basis functions of B2  symmetry.
 Integral buffers will be    131072 words long.
 Regular integral format.
 Two-electron integral symmetry is turned off.
    13 basis functions,    21 primitive gaussians,    13 cartesian basis functions
     5 alpha electrons        5 beta electrons
       nuclear repulsion energy         9.0348690170 Hartrees.
 IExCor=    0 DFT=F Ex=HF Corr=None ExCW=0 ScaHFX=  1.000000
 ScaDFX=  1.000000  1.000000  1.000000  1.000000 ScalE2=  1.000000  1.000000
 IRadAn=      0 IRanWt=     -1 IRanGd=            0 ICorTp=0
 NAtoms=    3 NActive=    3 NUniq=    2 SFac= 1.69D+00 NAtFMM=   80 NAOKFM=F Big=F
 Leave Link  301 at Sun Apr 10 22:18:25 2016, MaxMem=   33554432 cpu:       0.1
 (Enter /software/gaussian-09RevA.02-el6-x86_64/g09/l302.exe)
 NPDir=0 NMtPBC=     1 NCelOv=     1 NCel=       1 NClECP=     1 NCelD=      1
         NCelK=      1 NCelE2=     1 NClLst=     1 CellRange=     0.0.
 One-electron integrals computed using PRISM.
 The smallest eigenvalue of the overlap matrix is  1.120D-01
 NBasis=    13 RedAO= F  NBF=     7     0     2     4
 NBsUse=    13 1.00D-04 NBFU=     7     0     2     4
 Leave Link  302 at Sun Apr 10 22:18:25 2016, MaxMem=   33554432 cpu:       0.1
 (Enter /software/gaussian-09RevA.02-el6-x86_64/g09/l303.exe)
 DipDrv:  MaxL=1.
 Leave Link  303 at Sun Apr 10 22:18:25 2016, MaxMem=   33554432 cpu:       0.0
 (Enter /software/gaussian-09RevA.02-el6-x86_64/g09/l401.exe)
 Initial guess read from the checkpoint file:  H20_MC.chk
 B after Tr=     0.000000    0.000000    0.000000
         Rot=    1.000000    0.000000    0.000000    0.000000 Ang=   0.00 deg.
 Guess basis will be translated and rotated to current coordinates.
 Initial guess orbital symmetries:
       Occupied  (A1) (A1) (B2) (A1) (B1)
       Virtual   (A1) (B2) (B2) (A1) (B1) (A1) (B2) (A1)
 The electronic state of the initial guess is 1-A1.
 Leave Link  401 at Sun Apr 10 22:18:26 2016, MaxMem=   33554432 cpu:       0.2
 (Enter /software/gaussian-09RevA.02-el6-x86_64/g09/l405.exe)
          Truncation Level=               99999
          a=  3          b=  0          c=  1
          a=N/2 - s   b=2s   c=n- (a+b)
          no. active orbitals (n)  4
          no. active ELECTRONS (N)=  6
                                                  IRREPS TO BE RETAINED = 1 2 3 4
                                                  GROUP IRREP. MULT. TABLE
                                                      1    2    3    4
                                                      2    1    4    3
                                                      3    4    1    2
                                                      4    3    2    1
                                                  IRREP. LABELS FOR ORBITALS
                                                   4 1 3 1
          BOTTOM WEIGHT= 12     TOP WEIGHT= 18
          Configuration         1 Symmetry 1 1110
          Configuration         2 Symmetry 3 11ab
          Configuration         3 Symmetry 1 1101
          Configuration         4 Symmetry 1 1a1b
          Configuration         5 Symmetry 3 1ab1
          Configuration         6 Symmetry 4 a11b
          Configuration         7 Symmetry 1 1011
          Configuration         8 Symmetry 2 a1b1
          Configuration         9 Symmetry 4 ab11
          Configuration        10 Symmetry 1 0111
          NO OF BASIS FUNCTIONS =        10 NO TO BE DELETED =    0
 CI Matrix Elements calculated here
          NO. OF CONFIGURATIONS IN REFERENCE SPACE =    1
                                   SECONDARY SPACE =   10
                                   TERTIARY SPACE =   10
          NO. OF ORBITALS =    4
          NO. OF ELECTRONS =    6
          NO. OF WEIGHTS =    7
          REFERENCE STATE CONFIGURATIONS ARE:     0
          NO. OF CORE ORBITALS =    0
          OPTION:  NON-DIAGONAL HOLE LINE INTERACTIONS INCLUDED
 Len28=        2263 LenMCI=         885.
 Leave Link  405 at Sun Apr 10 22:18:26 2016, MaxMem=   33554432 cpu:       0.4
 (Enter /software/gaussian-09RevA.02-el6-x86_64/g09/l510.exe)
 Enter MCSCF program.
 NO. OF ORBITALS = 13     NO. OF CORE-ORBITALS =  2
 NO. OF VALENCE-ORBITALS =  4      NO. OF VIRTUAL-ORBITALS =  7
 USED ACCURACY IN CHECKING CONVERGENCE =  1.00D-08
  Memory needed for Incore Integrals:                  266330
  Memory needed for direct integral evaluation:                   13401
  Integrals KEPT IN MEMORY
 IBUJAK length=                    7462
 Integral file not found: evaluate integrals 
 Symmetry not used in FoFDir.
 MinBra= 0 MaxBra= 1 Meth= 1.
 IRaf=       0 NMat=   1 IRICut=       1 DoRegI=T DoRafI=F ISym2E= 0 JSym2E=0.
 First order MCSCF but last itn is Quadratic
 Defining IBUGAM
 2ND ORD PT ENERGY     CV    0.000000   CU    0.000000   UV    0.000000
 TOTAL                     -75.601420
 ITN=  1 MaxIt= 64 E=    -75.6014201827 DE=-7.56D+01 Acc= 1.00D-08 Lan=  0
 ITN=  2 MaxIt= 64 E=    -75.6014201845 DE=-1.81D-09 Acc= 1.00D-08 Lan=  0
 ... Do an extra-iteration for final printing.


                    EIGENVALUES AND  EIGENVECTORS OF CI MATRIX



   ( 1)     EIGENVALUE     -75.6014201853
 (    1) 0.9965511 (    7)-0.0744524 (   10)-0.0321194 (    3)-0.0176380 (    4) 0.0000075 (    8) 0.0000000 (    9) 0.0000000
 (    6) 0.0000000 (    2) 0.0000000 (    5) 0.0000000 (
 Final one electron symbolic density matrix:
                1             2             3             4 
      1  0.199794D+01
      2  0.805049D-15  0.198891D+01
      3  0.756253D-15  0.728792D-17  0.199938D+01
      4 -0.172107D-14 -0.195890D-04  0.544255D-15  0.137718D-01
 ***REDUNDANT VALENCE-CORE PARM** IU=           1
 ***REDUNDANT VALENCE-CORE PARM** IU=           3
 MCSCF converged.
 Leave Link  510 at Sun Apr 10 22:18:26 2016, MaxMem=   33554432 cpu:       0.4
 (Enter /software/gaussian-09RevA.02-el6-x86_64/g09/l801.exe)
 Range of M.O.s used for correlation:     1    13
 NBasis=    13 NAE=     5 NBE=     5 NFC=     0 NFV=     0
 NROrb=     13 NOA=     5 NOB=     5 NVA=     8 NVB=     8
 Leave Link  801 at Sun Apr 10 22:18:26 2016, MaxMem=   33554432 cpu:       0.0
 (Enter /software/gaussian-09RevA.02-el6-x86_64/g09/l1101.exe)
 Not using compressed storage, NAtomX=     3.
 Will process   3 centers per pass.
 Leave Link 1101 at Sun Apr 10 22:18:27 2016, MaxMem=   33554432 cpu:       0.2
 (Enter /software/gaussian-09RevA.02-el6-x86_64/g09/l1003.exe)
 NO. OF ORBITALS         = 13      NO. OF CORE-ORBITALS    =  2
 NO. OF VALENCE-ORBITALS =  4      NO. OF VIRTUAL-ORBITALS =  7
 One call to fofdir will do it.
 Symmetry not used in FoFDir.
 MinBra= 0 MaxBra= 1 Meth= 1.
 IRaf=       1 NMat=   2 IRICut=       1 DoRegI=T DoRafI=F ISym2E= 0 JSym2E=0.
 JobTyp= 0 Pass  1:  I=   1 to   4  IAt=   2 to   3.
 ***REDUNDANT VALENCE-CORE PARM** IU=         1
 ***REDUNDANT VALENCE-CORE PARM** IU=         3
 ***REDUNDANT VALENCE-CORE PARM** IU=         1
 ***REDUNDANT VALENCE-CORE PARM** IU=         3
 ***REDUNDANT VALENCE-CORE PARM** IU=         1
 ***REDUNDANT VALENCE-CORE PARM** IU=         3
 ***REDUNDANT VALENCE-CORE PARM** IU=         1
 ***REDUNDANT VALENCE-CORE PARM** IU=         3
 ***REDUNDANT VALENCE-CORE PARM** IU=         1
 ***REDUNDANT VALENCE-CORE PARM** IU=         3
 ***REDUNDANT VALENCE-CORE PARM** IU=         1
 ***REDUNDANT VALENCE-CORE PARM** IU=         3
 Leave Link 1003 at Sun Apr 10 22:18:27 2016, MaxMem=   33554432 cpu:       0.4
 (Enter /software/gaussian-09RevA.02-el6-x86_64/g09/l601.exe)
 Copying SCF densities to generalized density rwf, IOpCl= 0 IROHF=3.

 **********************************************************************

            Population analysis using the SCF density.

 **********************************************************************

 Orbital symmetries:
       Occupied  (A1) (A1) (B2) (A1) (B1)
       Virtual   (A1) (B2) (B2) (A1) (B1) (A1) (B2) (A1)
 The electronic state is 1-A1.
 Alpha  occ. eigenvalues --    0.00000   0.00000   0.00000   0.00000   0.00000
 Alpha virt. eigenvalues --    0.00000   0.00000   0.00000   0.00000   0.00000
 Alpha virt. eigenvalues --    0.00000   0.00000   0.00000
          Condensed to atoms (all electrons):
              1          2          3
     1  O    8.194784   0.257954   0.257954
     2  H    0.257954   0.422817  -0.036116
     3  H    0.257954  -0.036116   0.422817
 Mulliken atomic charges:
              1
     1  O   -0.710691
     2  H    0.355346
     3  H    0.355346
 Sum of Mulliken atomic charges =   0.00000
 Mulliken charges with hydrogens summed into heavy atoms:
              1
     1  O    0.000000
 Sum of Mulliken charges with hydrogens summed into heavy atoms =   0.00000
 Electronic spatial extent (au):  <R**2>=             18.7539
 Charge=              0.0000 electrons
 Dipole moment (field-independent basis, Debye):
    X=              0.0000    Y=              0.0000    Z=             -2.3521  Tot=              2.3521
 Quadrupole moment (field-independent basis, Debye-Ang):
   XX=             -6.8501   YY=             -4.0119   ZZ=             -5.8930
   XY=              0.0000   XZ=              0.0000   YZ=              0.0000
 Traceless Quadrupole moment (field-independent basis, Debye-Ang):
   XX=             -1.2651   YY=              1.5731   ZZ=             -0.3080
   XY=              0.0000   XZ=              0.0000   YZ=              0.0000
 Octapole moment (field-independent basis, Debye-Ang**2):
  XXX=              0.0000  YYY=              0.0000  ZZZ=             -1.1335  XYY=              0.0000
  XXY=              0.0000  XXZ=             -0.2895  XZZ=              0.0000  YZZ=              0.0000
  YYZ=             -1.1999  XYZ=              0.0000
 Hexadecapole moment (field-independent basis, Debye-Ang**3):
 XXXX=             -4.2216 YYYY=             -5.5762 ZZZZ=             -5.3455 XXXY=              0.0000
 XXXZ=              0.0000 YYYX=              0.0000 YYYZ=              0.0000 ZZZX=              0.0000
 ZZZY=              0.0000 XXYY=             -1.8957 XXZZ=             -1.6369 YYZZ=             -1.5390
 XXYZ=              0.0000 YYXZ=              0.0000 ZZXY=              0.0000
 N-N= 9.034869017026D+00 E-N=-1.977974742859D+02  KE= 7.544129058307D+01
 No NMR shielding tensors so no spin-rotation constants.
 Leave Link  601 at Sun Apr 10 22:18:27 2016, MaxMem=   33554432 cpu:       0.1
 (Enter /software/gaussian-09RevA.02-el6-x86_64/g09/l701.exe)
 Compute integral second derivatives.
 ... and contract with generalized density number  0.
 Leave Link  701 at Sun Apr 10 22:18:27 2016, MaxMem=   33554432 cpu:       0.1
 (Enter /software/gaussian-09RevA.02-el6-x86_64/g09/l702.exe)
 TWLHES:  FMTGEN WAS CALLED        77 TIMES.
 Leave Link  702 at Sun Apr 10 22:18:27 2016, MaxMem=   33554432 cpu:       0.0
 (Enter /software/gaussian-09RevA.02-el6-x86_64/g09/l703.exe)
 Compute integral second derivatives, UseDBF=F ICtDFT=           0.
 DF integral derivatives using scalar Rys method.
 Standard cutoffs used.
 PQCut1= 1.00D-20 PQCut2= 1.00D-20 PQCut3= 1.00D+02 PQCut4= 1.00D-20
 RysSet:  KIntrp=        0   KCalc=        0   KAssym=        0
 Leave Link  703 at Sun Apr 10 22:18:27 2016, MaxMem=   33554432 cpu:       0.0
 (Enter /software/gaussian-09RevA.02-el6-x86_64/g09/l716.exe)
 Full mass-weighted force constant matrix:
 Low frequencies ---  -80.7498  -75.3845  -57.6062   -0.0012   -0.0010   -0.0007
 Low frequencies --- 1772.9454 3698.3092 3911.0405
 Diagonal vibrational polarizability:
        0.0000000       0.0000000       0.0000000
 Harmonic frequencies (cm**-1), IR intensities (KM/Mole), Raman scattering
 activities (A**4/AMU), depolarization ratios for plane and unpolarized
 incident light, reduced masses (AMU), force constants (mDyne/A),
 and normal coordinates:
                     1                      2                      3
                    A1                     A1                     B2
 Frequencies --  1772.9454              3698.3092              3911.0400
 Red. masses --     1.0901                 1.0383                 1.0851
 Frc consts  --     2.0189                 8.3673                 9.7793
 IR Inten    --     0.0000                 0.0000                 0.0000
  Atom  AN      X      Y      Z        X      Y      Z        X      Y      Z
     1   8     0.00   0.00   0.07     0.00   0.00   0.05     0.00   0.07   0.00
     2   1     0.00  -0.39  -0.59     0.00   0.61  -0.36     0.00  -0.57   0.42
     3   1     0.00   0.39  -0.59     0.00  -0.61  -0.36     0.00  -0.57  -0.42

 -------------------
 - Thermochemistry -
 -------------------
 Temperature   298.150 Kelvin.  Pressure   1.00000 Atm.
 Atom     1 has atomic number  8 and mass  15.99491
 Atom     2 has atomic number  1 and mass   1.00783
 Atom     3 has atomic number  1 and mass   1.00783
 Molecular mass:    18.01056 amu.
 Principal axes and moments of inertia in atomic units:
                           1         2         3
     Eigenvalues --     2.10311   4.45170   6.55481
           X            0.00000   0.00000   1.00000
           Y            1.00000   0.00000   0.00000
           Z            0.00000   1.00000   0.00000
 This molecule is an asymmetric top.
 Rotational symmetry number  2.
 Rotational temperatures (Kelvin)     41.18374    19.45635    13.21378
 Rotational constants (GHZ):         858.13083   405.40495   275.33093
 Zero-point vibrational energy      56118.6 (Joules/Mol)
                                   13.41266 (Kcal/Mol)
 Vibrational temperatures:   2550.87  5321.04  5627.11
          (Kelvin)
 
 Zero-point correction=                           0.021374 (Hartree/Particle)
 Thermal correction to Energy=                    0.024209
 Thermal correction to Enthalpy=                  0.025153
 Thermal correction to Gibbs Free Energy=         0.003711
 Sum of electronic and zero-point Energies=            -75.580046
 Sum of electronic and thermal Energies=               -75.577212
 Sum of electronic and thermal Enthalpies=             -75.576267
 Sum of electronic and thermal Free Energies=          -75.597709
 
                     E (Thermal)             CV                S
                      KCal/Mol        Cal/Mol-Kelvin    Cal/Mol-Kelvin
 Total                   15.191              5.990             45.128
 Electronic               0.000              0.000              0.000
 Translational            0.889              2.981             34.608
 Rotational               0.889              2.981             10.516
 Vibrational             13.414              0.028              0.004
                       Q            Log10(Q)             Ln(Q)
 Total Bot       0.196373D-01         -1.706919         -3.930326
 Total V=0       0.133235D+09          8.124620         18.707629
 Vib (Bot)       0.147416D-09         -9.831455        -22.637762
 Vib (V=0)       0.100019D+01          0.000084          0.000192
 Electronic      0.100000D+01          0.000000          0.000000
 Translational   0.300432D+07          6.477746         14.915562
 Rotational      0.443394D+02          1.646790          3.791874
 ***** Axes restored to original set *****
 -------------------------------------------------------------------
 Center     Atomic                   Forces (Hartrees/Bohr)
 Number     Number              X              Y              Z
 -------------------------------------------------------------------
      1        8          -0.000364699    0.000000000   -0.000279843
      2        1           0.000067276    0.000000000    0.000289889
      3        1           0.000297423    0.000000000   -0.000010045
 -------------------------------------------------------------------
 Cartesian Forces:  Max     0.000364699 RMS     0.000207750
 Force constants in Cartesian coordinates: 
                1             2             3             4             5 
      1  0.520723D+00
      2  0.000000D+00 -0.384969D-03
      3 -0.140679D+00  0.000000D+00  0.596113D+00
      4 -0.542999D-01  0.000000D+00 -0.281978D-01  0.587034D-01
      5  0.000000D+00  0.192484D-03  0.000000D+00  0.000000D+00 -0.159525D-03
      6  0.584489D-01  0.000000D+00 -0.504118D+00 -0.336591D-01  0.000000D+00
      7 -0.466423D+00  0.000000D+00  0.168877D+00 -0.440349D-02  0.000000D+00
      8  0.000000D+00  0.192484D-03  0.000000D+00  0.000000D+00 -0.329595D-04
      9  0.822302D-01  0.000000D+00 -0.919948D-01  0.618569D-01  0.000000D+00
                6             7             8             9 
      6  0.518453D+00
      7 -0.247898D-01  0.470827D+00
      8  0.000000D+00  0.000000D+00 -0.159525D-03
      9 -0.143356D-01 -0.144087D+00  0.000000D+00  0.106330D+00
 Force constants in internal coordinates: 
                1             2             3 
      1  0.519943D+00
      2 -0.193256D-01  0.519943D+00
      3  0.410476D-01  0.410476D-01  0.194669D+00
 Leave Link  716 at Sun Apr 10 22:18:28 2016, MaxMem=   33554432 cpu:       0.0
 (Enter /software/gaussian-09RevA.02-el6-x86_64/g09/l103.exe)

 GradGradGradGradGradGradGradGradGradGradGradGradGradGradGradGradGradGrad
 Berny optimization.
 Internal  Forces:  Max     0.000288165 RMS     0.000248168
 Search for a local minimum.
 Step number   1 out of a maximum of    2
 All quantities printed in internal units (Hartrees-Bohrs-Radians)
 Second derivative matrix not updated -- analytic derivatives used.
 The second derivative matrix:
                          R1        R2        A1
           R1           0.51994
           R2          -0.01933   0.51994
           A1           0.04105   0.04105   0.19467
     Eigenvalues ---    0.18402   0.51126   0.53927
 Angle between quadratic step and forces=  28.00 degrees.
 Linear search not attempted -- first point.
 Iteration  1 RMS(Cart)=  0.00052503 RMS(Int)=  0.00000027
 Iteration  2 RMS(Cart)=  0.00000031 RMS(Int)=  0.00000000
 ClnCor:  largest displacement from symmetrization is 4.11D-14 for atom     3.
 Variable       Old X    -DE/DX   Delta X   Delta X   Delta X     New X
                                 (Linear)    (Quad)   (Total)
    R1        1.83941   0.00029   0.00000   0.00066   0.00066   1.84007
    R2        1.83941   0.00029   0.00000   0.00066   0.00066   1.84007
    A1        1.88128  -0.00014   0.00000  -0.00098  -0.00098   1.88030
         Item               Value     Threshold  Converged?
 Maximum Force            0.000288     0.000450     YES
 RMS     Force            0.000248     0.000300     YES
 Maximum Displacement     0.000589     0.001800     YES
 RMS     Displacement     0.000525     0.001200     YES
 Predicted change in Energy=-2.558918D-07
 Optimization completed.
    -- Stationary point found.
                           ----------------------------
                           !   Optimized Parameters   !
                           ! (Angstroms and Degrees)  !
 --------------------------                            --------------------------
 ! Name  Definition              Value          Derivative Info.                !
 --------------------------------------------------------------------------------
 ! R1    R(1,2)                  0.9734         -DE/DX =    0.0003              !
 ! R2    R(1,3)                  0.9734         -DE/DX =    0.0003              !
 ! A1    A(2,1,3)              107.7892         -DE/DX =   -0.0001              !
 --------------------------------------------------------------------------------
 GradGradGradGradGradGradGradGradGradGradGradGradGradGradGradGradGradGrad

 Leave Link  103 at Sun Apr 10 22:18:28 2016, MaxMem=   33554432 cpu:       0.0
 (Enter /software/gaussian-09RevA.02-el6-x86_64/g09/l9999.exe)
 1\1\GINC-MIDWAY219\Freq\CASSCF\3-21G\H2O1\ROOT\10-Apr-2016\0\\#P Geom=
 AllCheck Guess=TCheck SCRF=Check GenChk CASSCF/3-21G Freq\\H20 MCSCF/3
 -21G\\0,1\O,0.0025066929,0.,0.0019234531\H,-0.0211828999,0.,0.97501097
 32\H,0.936305742,0.,-0.2728125192\\Version=EM64L-G09RevA.02\State=1-A1
 \HF=-75.6014202\RMSD=0.000e+00\RMSF=2.077e-04\ZeroPoint=0.0213744\Ther
 mal=0.0242086\PG=C02V [C2(O1),SGV(H2)]\NImag=0\\0.52072296,0.,-0.00038
 497,-0.14067907,0.,0.59611264,-0.05429994,0.,-0.02819784,0.05870343,0.
 ,0.00019248,0.,0.,-0.00015952,0.05844886,0.,-0.50411786,-0.03365908,0.
 ,0.51845346,-0.46642302,0.,0.16887691,-0.00440349,0.,-0.02478978,0.470
 82650,0.,0.00019248,0.,0.,-0.00003296,0.,0.,-0.00015952,0.08223021,0.,
 -0.09199478,0.06185692,0.,-0.01433560,-0.14408713,0.,0.10633038\\0.000
 36470,0.,0.00027984,-0.00006728,0.,-0.00028989,-0.00029742,0.,0.000010
 05\\\@


 WE ARE REACHING THE STAGE WHERE THE PROBLEMS WE MUST SOLVE ARE 
 GOING TO BECOME INSOLUBLE WITHOUT COMPUTERS.
 I DO NOT FEAR COMPUTERS.  I FEAR THE LACK OF THEM.

                                   -- ISSAC ASIMOV
 Job cpu time:  0 days  0 hours  0 minutes  2.6 seconds.
 File lengths (MBytes):  RWF=     97 Int=      0 D2E=      0 Chk=      2 Scr=      2
 Normal termination of Gaussian 09 at Sun Apr 10 22:18:28 2016.
