 Entering Gaussian System, Link 0=g09
 Input=ch4scan.inp
 Output=ch4scan.log
 Initial command:
 /software/gaussian-09RevA.02-el6-x86_64/g09/l1.exe /home/ilariamerutka/scratch-midway/gaussian-work/Gau-30831.inp -scrdir=/home/ilariamerutka/scratch-midway/gaussian-work/
 Entering Link 1 = /software/gaussian-09RevA.02-el6-x86_64/g09/l1.exe PID=     30832.
  
 Copyright (c) 1988,1990,1992,1993,1995,1998,2003,2009, Gaussian, Inc.
                  All Rights Reserved.
  
 This is part of the Gaussian(R) 09 program.  It is based on
 the Gaussian(R) 03 system (copyright 2003, Gaussian, Inc.),
 the Gaussian(R) 98 system (copyright 1998, Gaussian, Inc.),
 the Gaussian(R) 94 system (copyright 1995, Gaussian, Inc.),
 the Gaussian 92(TM) system (copyright 1992, Gaussian, Inc.),
 the Gaussian 90(TM) system (copyright 1990, Gaussian, Inc.),
 the Gaussian 88(TM) system (copyright 1988, Gaussian, Inc.),
 the Gaussian 86(TM) system (copyright 1986, Carnegie Mellon
 University), and the Gaussian 82(TM) system (copyright 1983,
 Carnegie Mellon University). Gaussian is a federally registered
 trademark of Gaussian, Inc.
  
 This software contains proprietary and confidential information,
 including trade secrets, belonging to Gaussian, Inc.
  
 This software is provided under written license and may be
 used, copied, transmitted, or stored only in accord with that
 written license.
  
 The following legend is applicable only to US Government
 contracts under FAR:
  
                    RESTRICTED RIGHTS LEGEND
  
 Use, reproduction and disclosure by the US Government is
 subject to restrictions as set forth in subparagraphs (a)
 and (c) of the Commercial Computer Software - Restricted
 Rights clause in FAR 52.227-19.
  
 Gaussian, Inc.
 340 Quinnipiac St., Bldg. 40, Wallingford CT 06492
  
  
 ---------------------------------------------------------------
 Warning -- This program may not be used in any manner that
 competes with the business of Gaussian, Inc. or will provide
 assistance to any competitor of Gaussian, Inc.  The licensee
 of this program is prohibited from giving any competitor of
 Gaussian, Inc. access to this program.  By using this program,
 the user acknowledges that Gaussian, Inc. is engaged in the
 business of creating and licensing software in the field of
 computational chemistry and represents and warrants to the
 licensee that it is not a competitor of Gaussian, Inc. and that
 it will not use this program in any manner prohibited above.
 ---------------------------------------------------------------
  

 Cite this work as:
 Gaussian 09, Revision A.02,
 M. J. Frisch, G. W. Trucks, H. B. Schlegel, G. E. Scuseria, 
 M. A. Robb, J. R. Cheeseman, G. Scalmani, V. Barone, B. Mennucci, 
 G. A. Petersson, H. Nakatsuji, M. Caricato, X. Li, H. P. Hratchian, 
 A. F. Izmaylov, J. Bloino, G. Zheng, J. L. Sonnenberg, M. Hada, 
 M. Ehara, K. Toyota, R. Fukuda, J. Hasegawa, M. Ishida, T. Nakajima, 
 Y. Honda, O. Kitao, H. Nakai, T. Vreven, J. A. Montgomery, Jr., 
 J. E. Peralta, F. Ogliaro, M. Bearpark, J. J. Heyd, E. Brothers, 
 K. N. Kudin, V. N. Staroverov, R. Kobayashi, J. Normand, 
 K. Raghavachari, A. Rendell, J. C. Burant, S. S. Iyengar, J. Tomasi, 
 M. Cossi, N. Rega, J. M. Millam, M. Klene, J. E. Knox, J. B. Cross, 
 V. Bakken, C. Adamo, J. Jaramillo, R. Gomperts, R. E. Stratmann, 
 O. Yazyev, A. J. Austin, R. Cammi, C. Pomelli, J. W. Ochterski, 
 R. L. Martin, K. Morokuma, V. G. Zakrzewski, G. A. Voth, 
 P. Salvador, J. J. Dannenberg, S. Dapprich, A. D. Daniels, 
 O. Farkas, J. B. Foresman, J. V. Ortiz, J. Cioslowski, 
 and D. J. Fox, Gaussian, Inc., Wallingford CT, 2009.
 
 ******************************************
 Gaussian 09:  EM64L-G09RevA.02 11-Jun-2009
                10-Apr-2016 
 ******************************************
 --------------------------
 #p uhf/6-31g Opt(Z-matrix)
 --------------------------
 1/10=7,18=40,38=1/1,3;
 2/12=2,17=6,18=5,29=3,40=1/2;
 3/5=1,6=6,11=2,16=1,25=1,30=1,71=1,116=2/1,2,3;
 4//1;
 5/5=2,38=5/2;
 6/7=2,8=2,9=2,10=2,28=1/1;
 7/29=1/1,2,3,16;
 1/10=7,18=40/3(2);
 2/29=3/2;
 99//99;
 2/29=3/2;
 3/5=1,6=6,11=2,16=1,25=1,30=1,71=1,116=2/1,2,3;
 4/5=5,16=3/1;
 5/5=2,38=5/2;
 7//1,2,3,16;
 1/18=40/3(-5);
 2/29=3/2;
 6/7=2,8=2,9=2,10=2,19=2,28=1/1;
 99/9=1/99;
 Leave Link    1 at Sun Apr 10 21:25:51 2016, MaxMem=          0 cpu:       0.0
 (Enter /software/gaussian-09RevA.02-el6-x86_64/g09/l101.exe)
 ------------
 CH4 C-H Scan
 ------------
 Symbolic Z-matrix:
 Charge =  0 Multiplicity = 1
 C
 H                    1    B1
 H                    1    B2       2    A1
 H                    1    B3       3    A2       2    D1       0
 H                    1    B4       4    A3       2    D2       0
       Variables:
  B1                    0.6    Scan 30    0.1    
  B2                    1.07                     
  B3                    1.07                     
  B4                    1.07                     
  A1                  109.47122                  
  A2                  109.47122                  
  A3                  109.47122                  
  D1                 -120.                       
  D2                 -120.                       
 
     3 tetrahedral angles replaced.
 NAtoms=      5 NQM=      5 NQMF=      0 NMic=      0 NMicF=      0 NTot=      5.
    3 tetrahedral angles replaced.
                    Isotopes and Nuclear Properties:
 (Nuclear quadrupole moments (NQMom) in fm**2, nuclear magnetic moments (NMagM)
  in nuclear magnetons)

  Atom         1           2           3           4           5
 IAtWgt=          12           1           1           1           1
 AtmWgt=  12.0000000   1.0078250   1.0078250   1.0078250   1.0078250
 NucSpn=           0           1           1           1           1
 AtZEff=   0.0000000   0.0000000   0.0000000   0.0000000   0.0000000
 NQMom=    0.0000000   0.0000000   0.0000000   0.0000000   0.0000000
 NMagM=    0.0000000   2.7928460   2.7928460   2.7928460   2.7928460
 Leave Link  101 at Sun Apr 10 21:25:51 2016, MaxMem=   33554432 cpu:       0.1
 (Enter /software/gaussian-09RevA.02-el6-x86_64/g09/l103.exe)

 GradGradGradGradGradGradGradGradGradGradGradGradGradGradGradGradGradGrad
 Berny optimization.
 Initialization pass.
                       ----------------------------
                       !    Initial Parameters    !
                       ! (Angstroms and Degrees)  !
 ----------------------                            ----------------------
 !      Name          Value   Derivative information (Atomic Units)     !
 ------------------------------------------------------------------------
 !       B1          0.6      Scan                                      !
 !       B2          1.07     estimate D2E/DX2                          !
 !       B3          1.07     estimate D2E/DX2                          !
 !       B4          1.07     estimate D2E/DX2                          !
 !       A1        109.4712   estimate D2E/DX2                          !
 !       A2        109.4712   estimate D2E/DX2                          !
 !       A3        109.4712   estimate D2E/DX2                          !
 !       D1       -120.0      estimate D2E/DX2                          !
 !       D2       -120.0      estimate D2E/DX2                          !
 ------------------------------------------------------------------------
 Trust Radius=3.00D-01 FncErr=1.00D-07 GrdErr=1.00D-07
 Number of optimizations in scan=  31
 Number of steps in this run=  20 maximum allowed number of steps= 100.
 GradGradGradGradGradGradGradGradGradGradGradGradGradGradGradGradGradGrad

 Leave Link  103 at Sun Apr 10 21:25:51 2016, MaxMem=   33554432 cpu:       0.0
 (Enter /software/gaussian-09RevA.02-el6-x86_64/g09/l202.exe)
 ---------------------------------------------------------------------------------------------------
                            Z-MATRIX (ANGSTROMS AND DEGREES)
   CD    Cent   Atom    N1       Length/X        N2       Alpha/Y        N3        Beta/Z          J
 ---------------------------------------------------------------------------------------------------
      1      1  C 
      2      2  H        1   0.600000(     1)
      3      3  H        1   1.070000(     2)      2  109.471(     5)
      4      4  H        1   1.070000(     3)      3  109.471(     6)      2 -120.000(     8)      0
      5      5  H        1   1.070000(     4)      4  109.471(     7)      2 -120.000(     9)      0
 ---------------------------------------------------------------------------------------------------
                         Z-Matrix orientation:                         
 ---------------------------------------------------------------------
 Center     Atomic      Atomic             Coordinates (Angstroms)
 Number     Number       Type             X           Y           Z
 ---------------------------------------------------------------------
      1          6           0        0.000000    0.000000    0.000000
      2          1           0        0.000000    0.000000    0.600000
      3          1           0        1.008806    0.000000   -0.356667
      4          1           0       -0.504403   -0.873651   -0.356667
      5          1           0       -0.504403    0.873651   -0.356667
 ---------------------------------------------------------------------
                    Distance matrix (angstroms):
                    1          2          3          4          5
     1  C    0.000000
     2  H    0.600000   0.000000
     3  H    1.070000   1.390288   0.000000
     4  H    1.070000   1.390288   1.747303   0.000000
     5  H    1.070000   1.390288   1.747303   1.747303   0.000000
 Stoichiometry    CH4
 Framework group  C3V[C3(CH),3SGV(H)]
 Deg. of freedom     3
 Full point group                 C3V     NOp   6
 Largest Abelian subgroup         CS      NOp   2
 Largest concise Abelian subgroup CS      NOp   2
                         Standard orientation:                         
 ---------------------------------------------------------------------
 Center     Atomic      Atomic             Coordinates (Angstroms)
 Number     Number       Type             X           Y           Z
 ---------------------------------------------------------------------
      1          6           0        0.000000    0.000000    0.047000
      2          1           0        0.000000    0.000000    0.647000
      3          1           0        0.000000    1.008806   -0.309667
      4          1           0        0.873651   -0.504403   -0.309667
      5          1           0       -0.873651   -0.504403   -0.309667
 ---------------------------------------------------------------------
 Rotational constants (GHZ):    222.4458366    222.4458366    164.2463644
 Leave Link  202 at Sun Apr 10 21:25:51 2016, MaxMem=   33554432 cpu:       0.0
 (Enter /software/gaussian-09RevA.02-el6-x86_64/g09/l301.exe)
 Standard basis: 6-31G (6D, 7F)
 Ernie: Thresh=  0.10000D-02 Tol=  0.10000D-05 Strict=F.
 There are    13 symmetry adapted basis functions of A'  symmetry.
 There are     4 symmetry adapted basis functions of A"  symmetry.
 Integral buffers will be    131072 words long.
 Raffenetti 2 integral format.
 Two-electron integral symmetry is turned on.
    17 basis functions,    38 primitive gaussians,    17 cartesian basis functions
     5 alpha electrons        5 beta electrons
       nuclear repulsion energy        16.2442526092 Hartrees.
 IExCor=    0 DFT=F Ex=HF Corr=None ExCW=0 ScaHFX=  1.000000
 ScaDFX=  1.000000  1.000000  1.000000  1.000000 ScalE2=  1.000000  1.000000
 IRadAn=      0 IRanWt=     -1 IRanGd=            0 ICorTp=0
 NAtoms=    5 NActive=    5 NUniq=    3 SFac= 2.08D+00 NAtFMM=   80 NAOKFM=F Big=F
 Leave Link  301 at Sun Apr 10 21:25:51 2016, MaxMem=   33554432 cpu:       0.1
 (Enter /software/gaussian-09RevA.02-el6-x86_64/g09/l302.exe)
 NPDir=0 NMtPBC=     1 NCelOv=     1 NCel=       1 NClECP=     1 NCelD=      1
         NCelK=      1 NCelE2=     1 NClLst=     1 CellRange=     0.0.
 One-electron integrals computed using PRISM.
 One-electron integral symmetry used in STVInt
 NBasis=    17 RedAO= T  NBF=    13     4
 NBsUse=    17 1.00D-06 NBFU=    13     4
 Leave Link  302 at Sun Apr 10 21:25:52 2016, MaxMem=   33554432 cpu:       0.1
 (Enter /software/gaussian-09RevA.02-el6-x86_64/g09/l303.exe)
 DipDrv:  MaxL=1.
 Leave Link  303 at Sun Apr 10 21:25:52 2016, MaxMem=   33554432 cpu:       0.0
 (Enter /software/gaussian-09RevA.02-el6-x86_64/g09/l401.exe)
 Harris functional with IExCor=  205 diagonalized for initial guess.
 ExpMin= 1.61D-01 ExpMax= 3.05D+03 ExpMxC= 4.57D+02 IAcc=1 IRadAn=         1 AccDes= 0.00D+00
 HarFok:  IExCor=  205 AccDes= 0.00D+00 IRadAn=         1 IDoV= 1
 ScaDFX=  1.000000  1.000000  1.000000  1.000000
 FoFCou: FMM=F IPFlag=           0 FMFlag=      100000 FMFlg1=           0
         NFxFlg=           0 DoJE=T BraDBF=F KetDBF=T FulRan=T
         Omega=  0.000000  0.000000  1.000000  0.000000  0.000000 ICntrl=     500 IOpCl=  0
         NMat0=    1 NMatS0=    1 NMatT0=    0 NMatD0=    1 NMtDS0=    0 NMtDT0=    0
         I1Cent=           4 NGrid=           0.
 Petite list used in FoFCou.
 Harris En= -40.0045968553598    
 Initial guess orbital symmetries:
 Alpha Orbitals:
       Occupied  (A1) (A1) (A1) (E) (E)
       Virtual   (A1) (E) (E) (A1) (A1) (E) (E) (E) (E) (A1) (A1)
                 (A1)
 Beta  Orbitals:
       Occupied  (A1) (A1) (A1) (E) (E)
       Virtual   (A1) (E) (E) (A1) (A1) (E) (E) (E) (E) (A1) (A1)
                 (A1)
 The electronic state of the initial guess is 1-A1.
 Initial guess <Sx>= 0.0000 <Sy>= 0.0000 <Sz>= 0.0000 <S**2>= 0.0000 S= 0.0000
 Leave Link  401 at Sun Apr 10 21:25:52 2016, MaxMem=   33554432 cpu:       0.1
 (Enter /software/gaussian-09RevA.02-el6-x86_64/g09/l502.exe)
 UHF open shell SCF:
 Requested convergence on RMS density matrix=1.00D-08 within 128 cycles.
 Requested convergence on MAX density matrix=1.00D-06.
 Requested convergence on             energy=1.00D-06.
 No special actions if energy rises.
 Using DIIS extrapolation, IDIIS=  1040.
 Integral symmetry usage will be decided dynamically.
 Keep R1 and R2 ints in memory in canonical form, NReq=843414.
 IEnd=       19831 IEndB=       19831 NGot=    33554432 MDV=    33528114
 LenX=    33528114 LenY=    33527232
 Symmetry not used in FoFDir.
 MinBra= 0 MaxBra= 1 Meth= 1.
 IRaf=       0 NMat=   1 IRICut=       1 DoRegI=T DoRafI=F ISym2E= 0 JSym2E=0.

 Cycle   1  Pass 1  IDiag  1:
 E= -39.4504275415360    
 DIIS: error= 1.28D-01 at cycle   1 NSaved=   1.
 NSaved= 1 IEnMin= 1 EnMin= -39.4504275415360     IErMin= 1 ErrMin= 1.28D-01
 ErrMax= 1.28D-01 EMaxC= 1.00D-01 BMatC= 8.92D-01 BMatP= 8.92D-01
 IDIUse=3 WtCom= 0.00D+00 WtEn= 1.00D+00
 Coeff-Com:  0.100D+01
 Coeff-En:   0.100D+01
 Coeff:      0.100D+01
 Gap=     0.686 Goal=   None    Shift=    0.000
 Gap=     0.686 Goal=   None    Shift=    0.000
 GapD=    0.686 DampG=2.000 DampE=0.250 DampFc=0.5000 IDamp=-1.
 Damping current iteration by 5.00D-01
 RMSDP=3.27D-02 MaxDP=2.19D-01              OVMax= 2.14D-01

 Cycle   2  Pass 1  IDiag  1:
 E= -39.5870444147506     Delta-E=       -0.136616873215 Rises=F Damp=T
 DIIS: error= 4.37D-02 at cycle   2 NSaved=   2.
 NSaved= 2 IEnMin= 2 EnMin= -39.5870444147506     IErMin= 2 ErrMin= 4.37D-02
 ErrMax= 4.37D-02 EMaxC= 1.00D-01 BMatC= 1.02D-01 BMatP= 8.92D-01
 IDIUse=3 WtCom= 5.63D-01 WtEn= 4.37D-01
 Coeff-Com: -0.471D+00 0.147D+01
 Coeff-En:   0.000D+00 0.100D+01
 Coeff:     -0.265D+00 0.127D+01
 Gap=     0.796 Goal=   None    Shift=    0.000
 Gap=     0.796 Goal=   None    Shift=    0.000
 RMSDP=9.67D-03 MaxDP=7.26D-02 DE=-1.37D-01 OVMax= 4.10D-02

 Cycle   3  Pass 1  IDiag  1:
 E= -39.6974199841634     Delta-E=       -0.110375569413 Rises=F Damp=F
 DIIS: error= 4.86D-03 at cycle   3 NSaved=   3.
 NSaved= 3 IEnMin= 3 EnMin= -39.6974199841634     IErMin= 3 ErrMin= 4.86D-03
 ErrMax= 4.86D-03 EMaxC= 1.00D-01 BMatC= 3.20D-03 BMatP= 1.02D-01
 IDIUse=3 WtCom= 9.51D-01 WtEn= 4.86D-02
 Coeff-Com:  0.229D+00-0.506D+00 0.128D+01
 Coeff-En:   0.000D+00 0.000D+00 0.100D+01
 Coeff:      0.218D+00-0.481D+00 0.126D+01
 Gap=     0.814 Goal=   None    Shift=    0.000
 Gap=     0.814 Goal=   None    Shift=    0.000
 RMSDP=2.02D-03 MaxDP=1.05D-02 DE=-1.10D-01 OVMax= 9.77D-03

 Cycle   4  Pass 1  IDiag  1:
 E= -39.6981842069098     Delta-E=       -0.000764222746 Rises=F Damp=F
 DIIS: error= 4.17D-04 at cycle   4 NSaved=   4.
 NSaved= 4 IEnMin= 4 EnMin= -39.6981842069098     IErMin= 4 ErrMin= 4.17D-04
 ErrMax= 4.17D-04 EMaxC= 1.00D-01 BMatC= 1.35D-05 BMatP= 3.20D-03
 IDIUse=3 WtCom= 9.96D-01 WtEn= 4.17D-03
 Coeff-Com: -0.396D-01 0.844D-01-0.231D+00 0.119D+01
 Coeff-En:   0.000D+00 0.000D+00 0.000D+00 0.100D+01
 Coeff:     -0.395D-01 0.840D-01-0.230D+00 0.119D+01
 Gap=     0.813 Goal=   None    Shift=    0.000
 Gap=     0.813 Goal=   None    Shift=    0.000
 RMSDP=2.93D-04 MaxDP=9.55D-04 DE=-7.64D-04 OVMax= 1.12D-03

 Cycle   5  Pass 1  IDiag  1:
 E= -39.6981926216023     Delta-E=       -0.000008414693 Rises=F Damp=F
 DIIS: error= 9.96D-05 at cycle   5 NSaved=   5.
 NSaved= 5 IEnMin= 5 EnMin= -39.6981926216023     IErMin= 5 ErrMin= 9.96D-05
 ErrMax= 9.96D-05 EMaxC= 1.00D-01 BMatC= 6.79D-07 BMatP= 1.35D-05
 IDIUse=1 WtCom= 1.00D+00 WtEn= 0.00D+00
 Coeff-Com: -0.452D-03 0.115D-02-0.869D-02-0.229D+00 0.124D+01
 Coeff:     -0.452D-03 0.115D-02-0.869D-02-0.229D+00 0.124D+01
 Gap=     0.813 Goal=   None    Shift=    0.000
 Gap=     0.813 Goal=   None    Shift=    0.000
 RMSDP=7.57D-05 MaxDP=2.70D-04 DE=-8.41D-06 OVMax= 3.38D-04

 Cycle   6  Pass 1  IDiag  1:
 E= -39.6981930371493     Delta-E=       -0.000000415547 Rises=F Damp=F
 DIIS: error= 4.35D-06 at cycle   6 NSaved=   6.
 NSaved= 6 IEnMin= 6 EnMin= -39.6981930371493     IErMin= 6 ErrMin= 4.35D-06
 ErrMax= 4.35D-06 EMaxC= 1.00D-01 BMatC= 2.29D-09 BMatP= 6.79D-07
 IDIUse=1 WtCom= 1.00D+00 WtEn= 0.00D+00
 Coeff-Com: -0.117D-03 0.227D-03 0.140D-02 0.602D-01-0.333D+00 0.127D+01
 Coeff:     -0.117D-03 0.227D-03 0.140D-02 0.602D-01-0.333D+00 0.127D+01
 Gap=     0.813 Goal=   None    Shift=    0.000
 Gap=     0.813 Goal=   None    Shift=    0.000
 RMSDP=3.13D-06 MaxDP=1.38D-05 DE=-4.16D-07 OVMax= 1.80D-05

 Cycle   7  Pass 1  IDiag  1:
 E= -39.6981930381961     Delta-E=       -0.000000001047 Rises=F Damp=F
 DIIS: error= 6.21D-07 at cycle   7 NSaved=   7.
 NSaved= 7 IEnMin= 7 EnMin= -39.6981930381961     IErMin= 7 ErrMin= 6.21D-07
 ErrMax= 6.21D-07 EMaxC= 1.00D-01 BMatC= 2.58D-11 BMatP= 2.29D-09
 IDIUse=1 WtCom= 1.00D+00 WtEn= 0.00D+00
 Coeff-Com:  0.154D-05 0.993D-06-0.439D-03-0.126D-01 0.722D-01-0.337D+00
 Coeff-Com:  0.128D+01
 Coeff:      0.154D-05 0.993D-06-0.439D-03-0.126D-01 0.722D-01-0.337D+00
 Coeff:      0.128D+01
 Gap=     0.813 Goal=   None    Shift=    0.000
 Gap=     0.813 Goal=   None    Shift=    0.000
 RMSDP=4.03D-07 MaxDP=1.55D-06 DE=-1.05D-09 OVMax= 2.09D-06

 Cycle   8  Pass 1  IDiag  1:
 E= -39.6981930382105     Delta-E=       -0.000000000014 Rises=F Damp=F
 DIIS: error= 4.07D-08 at cycle   8 NSaved=   8.
 NSaved= 8 IEnMin= 8 EnMin= -39.6981930382105     IErMin= 8 ErrMin= 4.07D-08
 ErrMax= 4.07D-08 EMaxC= 1.00D-01 BMatC= 1.21D-13 BMatP= 2.58D-11
 IDIUse=1 WtCom= 1.00D+00 WtEn= 0.00D+00
 Coeff-Com: -0.576D-08-0.353D-06 0.512D-04 0.145D-02-0.835D-02 0.414D-01
 Coeff-Com: -0.206D+00 0.117D+01
 Coeff:     -0.576D-08-0.353D-06 0.512D-04 0.145D-02-0.835D-02 0.414D-01
 Coeff:     -0.206D+00 0.117D+01
 Gap=     0.813 Goal=   None    Shift=    0.000
 Gap=     0.813 Goal=   None    Shift=    0.000
 RMSDP=3.98D-08 MaxDP=2.26D-07 DE=-1.44D-11 OVMax= 1.55D-07

 Cycle   9  Pass 1  IDiag  1:
 E= -39.6981930382105     Delta-E=        0.000000000000 Rises=F Damp=F
 DIIS: error= 3.19D-09 at cycle   9 NSaved=   9.
 NSaved= 9 IEnMin= 9 EnMin= -39.6981930382105     IErMin= 9 ErrMin= 3.19D-09
 ErrMax= 3.19D-09 EMaxC= 1.00D-01 BMatC= 8.28D-16 BMatP= 1.21D-13
 IDIUse=1 WtCom= 1.00D+00 WtEn= 0.00D+00
 Coeff-Com:  0.266D-08 0.367D-07-0.819D-05-0.236D-03 0.136D-02-0.673D-02
 Coeff-Com:  0.354D-01-0.241D+00 0.121D+01
 Coeff:      0.266D-08 0.367D-07-0.819D-05-0.236D-03 0.136D-02-0.673D-02
 Coeff:      0.354D-01-0.241D+00 0.121D+01
 Gap=     0.813 Goal=   None    Shift=    0.000
 Gap=     0.813 Goal=   None    Shift=    0.000
 RMSDP=3.23D-09 MaxDP=2.82D-08 DE=-5.68D-14 OVMax= 1.35D-08

 SCF Done:  E(UHF) =  -39.6981930382     A.U. after    9 cycles
             Convg  =    0.3226D-08             -V/T =  1.9530
 <Sx>= 0.0000 <Sy>= 0.0000 <Sz>= 0.0000 <S**2>= 0.0000 S= 0.0000
 <L.S>= 0.000000000000E+00
 KE= 4.165726052501D+01 PE=-1.256002014799D+02 EE= 2.800049530748D+01
 Annihilation of the first spin contaminant:
 S**2 before annihilation     0.0000,   after     0.0000
 Leave Link  502 at Sun Apr 10 21:25:52 2016, MaxMem=   33554432 cpu:       0.1
 (Enter /software/gaussian-09RevA.02-el6-x86_64/g09/l601.exe)
 Copying SCF densities to generalized density rwf, IOpCl= 1 IROHF=0.

 **********************************************************************

            Population analysis using the SCF density.

 **********************************************************************

 Orbital symmetries:
 Alpha Orbitals:
       Occupied  (A1) (A1) (A1) (E) (E)
       Virtual   (A1) (E) (E) (A1) (A1) (E) (E) (E) (E) (A1) (A1)
                 (A1)
 Beta  Orbitals:
       Occupied  (A1) (A1) (A1) (E) (E)
       Virtual   (A1) (E) (E) (A1) (A1) (E) (E) (E) (E) (A1) (A1)
                 (A1)
 The electronic state is 1-A1.
 Alpha  occ. eigenvalues --  -11.18947  -1.04191  -0.64504  -0.54727  -0.54727
 Alpha virt. eigenvalues --    0.26573   0.32923   0.32923   0.40186   0.60266
 Alpha virt. eigenvalues --    0.74322   0.74322   1.23926   1.23926   1.27058
 Alpha virt. eigenvalues --    1.38651   2.42455
  Beta  occ. eigenvalues --  -11.18947  -1.04191  -0.64504  -0.54727  -0.54727
  Beta virt. eigenvalues --    0.26573   0.32923   0.32923   0.40186   0.60266
  Beta virt. eigenvalues --    0.74322   0.74322   1.23926   1.23926   1.27058
  Beta virt. eigenvalues --    1.38651   2.42455
          Condensed to atoms (all electrons):
              1          2          3          4          5
     1  C    4.908981   0.326387   0.412730   0.412730   0.412730
     2  H    0.326387   0.759272  -0.048518  -0.048518  -0.048518
     3  H    0.412730  -0.048518   0.551171  -0.026635  -0.026635
     4  H    0.412730  -0.048518  -0.026635   0.551171  -0.026635
     5  H    0.412730  -0.048518  -0.026635  -0.026635   0.551171
 Mulliken atomic charges:
              1
     1  C   -0.473558
     2  H    0.059895
     3  H    0.137888
     4  H    0.137888
     5  H    0.137888
 Sum of Mulliken atomic charges =   0.00000
 Mulliken charges with hydrogens summed into heavy atoms:
              1
     1  C    0.000000
 Sum of Mulliken charges with hydrogens summed into heavy atoms =   0.00000
          Atomic-Atomic Spin Densities.
              1          2          3          4          5
     1  C    0.000000   0.000000   0.000000   0.000000   0.000000
     2  H    0.000000   0.000000   0.000000   0.000000   0.000000
     3  H    0.000000   0.000000   0.000000   0.000000   0.000000
     4  H    0.000000   0.000000   0.000000   0.000000   0.000000
     5  H    0.000000   0.000000   0.000000   0.000000   0.000000
 Mulliken atomic spin densities:
              1
     1  C    0.000000
     2  H    0.000000
     3  H    0.000000
     4  H    0.000000
     5  H    0.000000
 Sum of Mulliken atomic spin densities =   0.00000
 Electronic spatial extent (au):  <R**2>=             30.9949
 Charge=              0.0000 electrons
 Dipole moment (field-independent basis, Debye):
    X=              0.0000    Y=              0.0000    Z=              0.0433  Tot=              0.0433
 Quadrupole moment (field-independent basis, Debye-Ang):
   XX=             -7.7591   YY=             -7.7591   ZZ=             -8.0505
   XY=              0.0000   XZ=              0.0000   YZ=              0.0000
 Traceless Quadrupole moment (field-independent basis, Debye-Ang):
   XX=              0.0971   YY=              0.0971   ZZ=             -0.1943
   XY=              0.0000   XZ=              0.0000   YZ=              0.0000
 Octapole moment (field-independent basis, Debye-Ang**2):
  XXX=              0.0000  YYY=              0.4679  ZZZ=              0.9335  XYY=              0.0000
  XXY=             -0.4679  XXZ=              0.0712  XZZ=              0.0000  YZZ=              0.0000
  YYZ=              0.0712  XYZ=              0.0000
 Hexadecapole moment (field-independent basis, Debye-Ang**3):
 XXXX=            -14.1988 YYYY=            -14.1988 ZZZZ=             -9.6606 XXXY=              0.0000
 XXXZ=              0.0000 YYYX=              0.0000 YYYZ=             -0.2520 ZZZX=              0.0000
 ZZZY=              0.0000 XXYY=             -4.7329 XXZZ=             -3.9879 YYZZ=             -3.9879
 XXYZ=              0.2520 YYXZ=              0.0000 ZZXY=              0.0000
 N-N= 1.624425260924D+01 E-N=-1.884003022002D+02  KE= 6.248589078751D+01
 Symmetry A'   KE= 5.955926454514D+01
 Symmetry A"   KE= 2.926626242377D+00
                          Isotropic Fermi Contact Couplings
        Atom                 a.u.       MegaHertz       Gauss      10(-4) cm-1
     1  C(13)              0.00000       0.00000       0.00000       0.00000
     2  H(1)               0.00000       0.00000       0.00000       0.00000
     3  H(1)               0.00000       0.00000       0.00000       0.00000
     4  H(1)               0.00000       0.00000       0.00000       0.00000
     5  H(1)               0.00000       0.00000       0.00000       0.00000
 --------------------------------------------------------
       Center         ----  Spin Dipole Couplings  ----
                      3XX-RR        3YY-RR        3ZZ-RR
 --------------------------------------------------------
     1   Atom        0.000000      0.000000      0.000000
     2   Atom        0.000000      0.000000      0.000000
     3   Atom        0.000000      0.000000      0.000000
     4   Atom        0.000000      0.000000      0.000000
     5   Atom        0.000000      0.000000      0.000000
 --------------------------------------------------------
                        XY            XZ            YZ
 --------------------------------------------------------
     1   Atom        0.000000      0.000000      0.000000
     2   Atom        0.000000      0.000000      0.000000
     3   Atom        0.000000      0.000000      0.000000
     4   Atom        0.000000      0.000000      0.000000
     5   Atom        0.000000      0.000000      0.000000
 --------------------------------------------------------


 ---------------------------------------------------------------------------------
              Anisotropic Spin Dipole Couplings in Principal Axis System
 ---------------------------------------------------------------------------------

       Atom             a.u.   MegaHertz   Gauss  10(-4) cm-1        Axes

              Baa     0.0000     0.000     0.000     0.000  1.0000  0.0000  0.0000
     1 C(13)  Bbb     0.0000     0.000     0.000     0.000  0.0000  1.0000  0.0000
              Bcc     0.0000     0.000     0.000     0.000  0.0000  0.0000  1.0000
 
              Baa     0.0000     0.000     0.000     0.000  1.0000  0.0000  0.0000
     2 H(1)   Bbb     0.0000     0.000     0.000     0.000  0.0000  1.0000  0.0000
              Bcc     0.0000     0.000     0.000     0.000  0.0000  0.0000  1.0000
 
              Baa     0.0000     0.000     0.000     0.000  1.0000  0.0000  0.0000
     3 H(1)   Bbb     0.0000     0.000     0.000     0.000  0.0000  1.0000  0.0000
              Bcc     0.0000     0.000     0.000     0.000  0.0000  0.0000  1.0000
 
              Baa     0.0000     0.000     0.000     0.000  1.0000  0.0000  0.0000
     4 H(1)   Bbb     0.0000     0.000     0.000     0.000  0.0000  1.0000  0.0000
              Bcc     0.0000     0.000     0.000     0.000  0.0000  0.0000  1.0000
 
              Baa     0.0000     0.000     0.000     0.000  1.0000  0.0000  0.0000
     5 H(1)   Bbb     0.0000     0.000     0.000     0.000  0.0000  1.0000  0.0000
              Bcc     0.0000     0.000     0.000     0.000  0.0000  0.0000  1.0000
 

 ---------------------------------------------------------------------------------

 No NMR shielding tensors so no spin-rotation constants.
 Leave Link  601 at Sun Apr 10 21:25:52 2016, MaxMem=   33554432 cpu:       0.1
 (Enter /software/gaussian-09RevA.02-el6-x86_64/g09/l701.exe)
 Compute integral first derivatives.
 ... and contract with generalized density number  0.
 Leave Link  701 at Sun Apr 10 21:25:52 2016, MaxMem=   33554432 cpu:       0.1
 (Enter /software/gaussian-09RevA.02-el6-x86_64/g09/l702.exe)
 L702 exits ... SP integral derivatives will be done elsewhere.
 Leave Link  702 at Sun Apr 10 21:25:52 2016, MaxMem=   33554432 cpu:       0.0
 (Enter /software/gaussian-09RevA.02-el6-x86_64/g09/l703.exe)
 Compute integral first derivatives, UseDBF=F ICtDFT=           0.
 Integral derivatives from FoFDir, PRISM(SPDF).
 Calling FoFJK, ICntrl=      2127 FMM=F ISym2X=1 I1Cent= 0 IOpClX= 1 NMat=1 NMatS=1 NMatT=0.
 FoFCou: FMM=F IPFlag=           0 FMFlag=      100000 FMFlg1=         800
         NFxFlg=           0 DoJE=F BraDBF=F KetDBF=F FulRan=T
         Omega=  0.000000  0.000000  1.000000  0.000000  0.000000 ICntrl=    2127 IOpCl=  1
         NMat0=    1 NMatS0=    1 NMatT0=    0 NMatD0=    1 NMtDS0=    0 NMtDT0=    0
         I1Cent=           0 NGrid=           0.
 Petite list used in FoFCou.
 Leave Link  703 at Sun Apr 10 21:25:52 2016, MaxMem=   33554432 cpu:       0.1
 (Enter /software/gaussian-09RevA.02-el6-x86_64/g09/l716.exe)
 Dipole        =-2.22044605D-16-2.22044605D-16 1.70237936D-02
 ***** Axes restored to original set *****
 -------------------------------------------------------------------
 Center     Atomic                   Forces (Hartrees/Bohr)
 Number     Number              X              Y              Z
 -------------------------------------------------------------------
      1        6           0.000000000    0.000000000   -1.758273578
      2        1           0.000000000    0.000000000    1.779553752
      3        1           0.002112010    0.000000000   -0.007093391
      4        1          -0.001056005   -0.001829054   -0.007093391
      5        1          -0.001056005    0.001829054   -0.007093391
 -------------------------------------------------------------------
 Cartesian Forces:  Max     1.779553752 RMS     0.645936109
 -----------------------------------------------------------------------------------------------
                       Internal Coordinate Forces (Hartree/Bohr or radian)
  Cent   Atom   N1       Length/X         N2         Alpha/Y        N3         Beta/Z          J
 -----------------------------------------------------------------------------------------------
      1  C 
      2  H        1   1.779554(     1)
      3  H        1   0.004356(     2)      2   0.009074(     5)
      4  H        1   0.004356(     3)      3  -0.003025(     6)      2  -0.004939(     8)     0
      5  H        1   0.004356(     4)      4  -0.006050(     7)      2  -0.009879(     9)     0
 -----------------------------------------------------------------------------------------------
 Internal  Forces:  Max     1.779553752 RMS     0.593213336
 Force constants in Cartesian coordinates: 
                1             2             3             4             5 
      1  0.868893D+00
      2  0.000000D+00  0.868893D+00
      3  0.000000D+00  0.000000D+00  0.396473D+01
      4 -0.224306D+00  0.000000D+00  0.000000D+00  0.188132D+00
      5  0.000000D+00 -0.224306D+00  0.000000D+00  0.000000D+00  0.188132D+00
      6  0.000000D+00  0.000000D+00 -0.362830D+01  0.000000D+00  0.000000D+00
      7 -0.350056D+00  0.000000D+00  0.919787D-01  0.233727D-01  0.000000D+00
      8  0.000000D+00 -0.796690D-01  0.000000D+00  0.000000D+00  0.743374D-03
      9  0.629194D-01  0.000000D+00 -0.112146D+00  0.661079D-01  0.000000D+00
     10 -0.147266D+00 -0.117081D+00 -0.459894D-01  0.640070D-02  0.979877D-02
     11 -0.117081D+00 -0.282459D+00 -0.796559D-01  0.979877D-02  0.177153D-01
     12 -0.314597D-01 -0.544898D-01 -0.112146D+00 -0.330539D-01 -0.572511D-01
     13 -0.147266D+00  0.117081D+00 -0.459894D-01  0.640070D-02 -0.979877D-02
     14  0.117081D+00 -0.282459D+00  0.796559D-01 -0.979877D-02  0.177153D-01
     15 -0.314597D-01  0.544898D-01 -0.112146D+00 -0.330539D-01  0.572511D-01
                6             7             8             9            10 
      6  0.362830D+01
      7  0.000000D+00  0.337515D+00
      8  0.000000D+00  0.000000D+00  0.590831D-01
      9  0.000000D+00 -0.983891D-01  0.000000D+00  0.940145D-01
     10  0.000000D+00 -0.541610D-02 -0.283836D-01 -0.153190D-01  0.128691D+00
     11  0.000000D+00  0.181846D-02  0.992128D-02  0.514339D-02  0.120565D+00
     12  0.000000D+00  0.320522D-02  0.158384D-01  0.906573D-02  0.491946D-01
     13  0.000000D+00 -0.541610D-02  0.283836D-01 -0.153190D-01  0.175900D-01
     14  0.000000D+00 -0.181846D-02  0.992128D-02 -0.514339D-02  0.151010D-01
     15  0.000000D+00  0.320522D-02 -0.158384D-01  0.906573D-02  0.121138D-01
               11            12            13            14            15 
     11  0.267907D+00
     12  0.852075D-01  0.940145D-01
     13 -0.151010D-01  0.121138D-01  0.128691D+00
     14 -0.130848D-01  0.106950D-01 -0.120565D+00  0.267907D+00
     15 -0.106950D-01  0.906573D-02  0.491946D-01 -0.852075D-01  0.940145D-01
 Force constants in internal coordinates: 
                1             2             3             4             5 
      1  0.362830D+01
      2  0.000000D+00  0.372301D+00
      3  0.000000D+00  0.000000D+00  0.372301D+00
      4  0.000000D+00  0.000000D+00  0.000000D+00  0.372301D+00
      5  0.000000D+00  0.000000D+00  0.000000D+00  0.000000D+00  0.301655D+00
      6  0.000000D+00  0.000000D+00  0.000000D+00  0.000000D+00  0.139772D+00
      7  0.000000D+00  0.000000D+00  0.000000D+00  0.000000D+00  0.386145D-01
      8  0.000000D+00  0.000000D+00  0.000000D+00  0.000000D+00  0.324967D-01
      9  0.000000D+00  0.000000D+00  0.000000D+00  0.000000D+00 -0.131209D+00
                6             7             8             9 
      6  0.300567D+00
      7  0.405454D-01  0.241711D+00
      8  0.320944D-01 -0.662687D-01  0.162194D+00
      9 -0.130035D+00  0.243050D-03  0.760339D-03  0.215119D+00
 Leave Link  716 at Sun Apr 10 21:25:52 2016, MaxMem=   33554432 cpu:       0.0
 (Enter /software/gaussian-09RevA.02-el6-x86_64/g09/l103.exe)

 GradGradGradGradGradGradGradGradGradGradGradGradGradGradGradGradGradGrad
 Berny optimization.
 Search for a local minimum.
 Step number   1 out of a maximum of   20 on scan point     1 out of    31
 All quantities printed in internal units (Hartrees-Bohrs-Radians)
 Second derivative matrix not updated -- first step.
 The second derivative matrix:
                          B1        B2        B3        B4        A1
           B1           3.62830
           B2           0.00000   0.37230
           B3           0.00000   0.00000   0.37230
           B4           0.00000   0.00000   0.00000   0.37230
           A1           0.00000   0.00000   0.00000   0.00000   0.30166
           A2           0.00000   0.00000   0.00000   0.00000   0.13977
           A3           0.00000   0.00000   0.00000   0.00000   0.03861
           D1           0.00000   0.00000   0.00000   0.00000   0.03250
           D2           0.00000   0.00000   0.00000   0.00000  -0.13121
                          A2        A3        D1        D2
           A2           0.30057
           A3           0.04055   0.24171
           D1           0.03209  -0.06627   0.16219
           D2          -0.13003   0.00024   0.00076   0.21512
     Eigenvalues ---    0.08004   0.14718   0.16135   0.27828   0.37230
     Eigenvalues ---    0.37230   0.37230   0.554391000.00000
 RFO step:  Lambda=-1.48902247D-03 EMin= 8.00436479D-02
 Linear search not attempted -- first point.
 Variable       Old X    -DE/DX   Delta X   Delta X   Delta X     New X
                                 (Linear)    (Quad)   (Total)
    B1        1.13384   1.77955   0.00000   0.00000   0.00000   1.13384
    B2        2.02201   0.00436   0.00000   0.01165   0.01165   2.03366
    B3        2.02201   0.00436   0.00000   0.01165   0.01165   2.03366
    B4        2.02201   0.00436   0.00000   0.01165   0.01165   2.03366
    A1        1.91063   0.00907   0.00000   0.03686   0.03686   1.94749
    A2        1.91063  -0.00302   0.00000  -0.03680  -0.03680   1.87384
    A3        1.91063  -0.00605   0.00000  -0.03680  -0.03680   1.87383
    D1       -2.09440  -0.00494   0.00000  -0.04497  -0.04497  -2.13936
    D2       -2.09440  -0.00988   0.00000  -0.04517  -0.04517  -2.13957
         Item               Value     Threshold  Converged?
 Maximum Force            0.009879     0.000450     NO 
 RMS     Force            0.006195     0.000300     NO 
 Maximum Displacement     0.045173     0.001800     NO 
 RMS     Displacement     0.030798     0.001200     NO 
 Predicted change in Energy=-7.508665D-04
 GradGradGradGradGradGradGradGradGradGradGradGradGradGradGradGradGradGrad

 Leave Link  103 at Sun Apr 10 21:25:52 2016, MaxMem=   33554432 cpu:       0.0
 (Enter /software/gaussian-09RevA.02-el6-x86_64/g09/l202.exe)
 ---------------------------------------------------------------------------------------------------
                            Z-MATRIX (ANGSTROMS AND DEGREES)
   CD    Cent   Atom    N1       Length/X        N2       Alpha/Y        N3        Beta/Z          J
 ---------------------------------------------------------------------------------------------------
      1      1  C 
      2      2  H        1   0.600000(     1)
      3      3  H        1   1.076166(     2)      2  111.583(     5)
      4      4  H        1   1.076166(     3)      3  107.363(     6)      2 -122.576(     8)      0
      5      5  H        1   1.076166(     4)      4  107.363(     7)      2 -122.588(     9)      0
 ---------------------------------------------------------------------------------------------------
                         Z-Matrix orientation:                         
 ---------------------------------------------------------------------
 Center     Atomic      Atomic             Coordinates (Angstroms)
 Number     Number       Type             X           Y           Z
 ---------------------------------------------------------------------
      1          6           0        0.000000    0.000000    0.000000
      2          1           0        0.000000    0.000000    0.600000
      3          1           0        1.000712    0.000000   -0.395866
      4          1           0       -0.502066   -0.865535   -0.396122
      5          1           0       -0.496597    0.868668   -0.396159
 ---------------------------------------------------------------------
                    Distance matrix (angstroms):
                    1          2          3          4          5
     1  C    0.000000
     2  H    0.600000   0.000000
     3  H    1.076166   1.411798   0.000000
     4  H    1.076166   1.411907   1.734213   0.000000
     5  H    1.076166   1.411923   1.731045   1.734211   0.000000
 Stoichiometry    CH4
 Framework group  C1[X(CH4)]
 Deg. of freedom     9
 Full point group                 C1      NOp   1
 Omega: Change in point group or standard orientation.

 Old FWG=C03V [C3(C1H1),3SGV(H1)]
 New FWG=C01  [X(C1H4)]
 Largest Abelian subgroup         C1      NOp   1
 Largest concise Abelian subgroup C1      NOp   1
                         Standard orientation:                         
 ---------------------------------------------------------------------
 Center     Atomic      Atomic             Coordinates (Angstroms)
 Number     Number       Type             X           Y           Z
 ---------------------------------------------------------------------
      1          6           0       -0.000469    0.000004    0.058814
      2          1           0       -0.001442   -0.000155    0.658813
      3          1           0        0.502463   -0.865412   -0.336467
      4          1           0       -1.000436   -0.000091   -0.338930
      5          1           0        0.502230    0.865633   -0.336300
 ---------------------------------------------------------------------
 Rotational constants (GHZ):    217.3554177    216.6677818    166.9380619
 Leave Link  202 at Sun Apr 10 21:25:52 2016, MaxMem=   33554432 cpu:       0.0
 (Enter /software/gaussian-09RevA.02-el6-x86_64/g09/l301.exe)
 Standard basis: 6-31G (6D, 7F)
 Ernie: Thresh=  0.10000D-02 Tol=  0.10000D-05 Strict=F.
 There are    17 symmetry adapted basis functions of A   symmetry.
 Integral buffers will be    131072 words long.
 Raffenetti 2 integral format.
 Two-electron integral symmetry is turned on.
    17 basis functions,    38 primitive gaussians,    17 cartesian basis functions
     5 alpha electrons        5 beta electrons
       nuclear repulsion energy        16.1832013917 Hartrees.
 IExCor=    0 DFT=F Ex=HF Corr=None ExCW=0 ScaHFX=  1.000000
 ScaDFX=  1.000000  1.000000  1.000000  1.000000 ScalE2=  1.000000  1.000000
 IRadAn=      0 IRanWt=     -1 IRanGd=            0 ICorTp=0
 NAtoms=    5 NActive=    5 NUniq=    5 SFac= 7.50D-01 NAtFMM=   80 NAOKFM=F Big=F
 Leave Link  301 at Sun Apr 10 21:25:52 2016, MaxMem=   33554432 cpu:       0.0
 (Enter /software/gaussian-09RevA.02-el6-x86_64/g09/l302.exe)
 NPDir=0 NMtPBC=     1 NCelOv=     1 NCel=       1 NClECP=     1 NCelD=      1
         NCelK=      1 NCelE2=     1 NClLst=     1 CellRange=     0.0.
 One-electron integrals computed using PRISM.
 NBasis=    17 RedAO= T  NBF=    17
 NBsUse=    17 1.00D-06 NBFU=    17
 Leave Link  302 at Sun Apr 10 21:25:53 2016, MaxMem=   33554432 cpu:       0.1
 (Enter /software/gaussian-09RevA.02-el6-x86_64/g09/l303.exe)
 DipDrv:  MaxL=1.
 Leave Link  303 at Sun Apr 10 21:25:53 2016, MaxMem=   33554432 cpu:       0.0
 (Enter /software/gaussian-09RevA.02-el6-x86_64/g09/l401.exe)
 Initial guess read from the read-write file.
 B after Tr=     0.000000    0.000000    0.000000
         Rot=    1.000000    0.000000    0.000000    0.000000 Ang=   0.00 deg.
 Guess basis will be translated and rotated to current coordinates.
 Initial guess orbital symmetries:
 Alpha Orbitals:
       Occupied  (A) (A) (A) (A) (A)
       Virtual   (A) (A) (A) (A) (A) (A) (A) (A) (A) (A) (A) (A)
 Beta  Orbitals:
       Occupied  (A) (A) (A) (A) (A)
       Virtual   (A) (A) (A) (A) (A) (A) (A) (A) (A) (A) (A) (A)
 The electronic state of the initial guess is 1-A.
 Initial guess <Sx>= 0.0000 <Sy>= 0.0000 <Sz>= 0.0000 <S**2>= 0.0000 S= 0.0000
 Generating alternative initial guess.
 Harris functional with IExCor=  205 diagonalized for initial guess.
 ExpMin= 1.61D-01 ExpMax= 3.05D+03 ExpMxC= 4.57D+02 IAcc=1 IRadAn=         1 AccDes= 0.00D+00
 HarFok:  IExCor=  205 AccDes= 0.00D+00 IRadAn=         1 IDoV= 1
 ScaDFX=  1.000000  1.000000  1.000000  1.000000
 FoFCou: FMM=F IPFlag=           0 FMFlag=      100000 FMFlg1=           0
         NFxFlg=           0 DoJE=T BraDBF=F KetDBF=T FulRan=T
         Omega=  0.000000  0.000000  1.000000  0.000000  0.000000 ICntrl=     500 IOpCl=  0
         NMat0=    1 NMatS0=    1 NMatT0=    0 NMatD0=    1 NMtDS0=    0 NMtDT0=    0
         I1Cent=           4 NGrid=           0.
 Petite list used in FoFCou.
 Harris En= -40.0029447753510    
 Leave Link  401 at Sun Apr 10 21:25:53 2016, MaxMem=   33554432 cpu:       0.2
 (Enter /software/gaussian-09RevA.02-el6-x86_64/g09/l502.exe)
 UHF open shell SCF:
 Requested convergence on RMS density matrix=1.00D-08 within 128 cycles.
 Requested convergence on MAX density matrix=1.00D-06.
 Requested convergence on             energy=1.00D-06.
 No special actions if energy rises.
 Using DIIS extrapolation, IDIIS=  1040.
 Integral symmetry usage will be decided dynamically.
 Keep R1 and R2 ints in memory in canonical form, NReq=843342.
 IEnd=       19759 IEndB=       19759 NGot=    33554432 MDV=    33528186
 LenX=    33528186 LenY=    33527304
 Symmetry not used in FoFDir.
 MinBra= 0 MaxBra= 1 Meth= 1.
 IRaf=       0 NMat=   1 IRICut=       1 DoRegI=T DoRafI=F ISym2E= 0 JSym2E=0.

 Cycle   1  Pass 1  IDiag  1:
 E= -37.1683346231367    
 DIIS: error= 1.74D-01 at cycle   1 NSaved=   1.
 NSaved= 1 IEnMin= 1 EnMin= -37.1683346231367     IErMin= 1 ErrMin= 1.74D-01
 ErrMax= 1.74D-01 EMaxC= 1.00D-01 BMatC= 2.22D+00 BMatP= 2.22D+00
 IDIUse=3 WtCom= 0.00D+00 WtEn= 1.00D+00
 Coeff-Com:  0.100D+01
 Coeff-En:   0.100D+01
 Coeff:      0.100D+01
 Recover alternate guess density for next cycle.
 RMSDP=1.28D-01 MaxDP=5.66D-01              OVMax= 0.00D+00

 Cycle   2  Pass 1  IDiag  1:
 E= -39.4502720895529     Delta-E=       -2.281937466416 Rises=F Damp=F
 DIIS: error= 1.26D-01 at cycle   2 NSaved=   2.
 NSaved= 2 IEnMin= 2 EnMin= -39.4502720895529     IErMin= 2 ErrMin= 1.26D-01
 ErrMax= 1.26D-01 EMaxC= 1.00D-01 BMatC= 8.93D-01 BMatP= 2.22D+00
 IDIUse=3 WtCom= 0.00D+00 WtEn= 1.00D+00
 Coeff-Com:  0.221D+00 0.779D+00
 Coeff-En:   0.000D+00 0.100D+01
 Coeff:      0.000D+00 0.100D+01
 Gap=     0.679 Goal=   None    Shift=    0.000
 Gap=     0.679 Goal=   None    Shift=    0.000
 RMSDP=3.26D-02 MaxDP=2.20D-01 DE=-2.28D+00 OVMax= 2.17D-01

 Cycle   3  Pass 1  IDiag  1:
 E= -39.6677384088179     Delta-E=       -0.217466319265 Rises=F Damp=F
 DIIS: error= 4.12D-02 at cycle   3 NSaved=   3.
 NSaved= 3 IEnMin= 3 EnMin= -39.6677384088179     IErMin= 3 ErrMin= 4.12D-02
 ErrMax= 4.12D-02 EMaxC= 1.00D-01 BMatC= 1.25D-01 BMatP= 8.93D-01
 IDIUse=3 WtCom= 5.88D-01 WtEn= 4.12D-01
 Coeff-Com:  0.548D-02 0.260D+00 0.735D+00
 Coeff-En:   0.000D+00 0.000D+00 0.100D+01
 Coeff:      0.322D-02 0.153D+00 0.844D+00
 Gap=     0.822 Goal=   None    Shift=    0.000
 Gap=     0.822 Goal=   None    Shift=    0.000
 RMSDP=1.06D-02 MaxDP=5.26D-02 DE=-2.17D-01 OVMax= 5.34D-02

 Cycle   4  Pass 1  IDiag  1:
 E= -39.6982209887720     Delta-E=       -0.030482579954 Rises=F Damp=F
 DIIS: error= 7.24D-03 at cycle   4 NSaved=   4.
 NSaved= 4 IEnMin= 4 EnMin= -39.6982209887720     IErMin= 4 ErrMin= 7.24D-03
 ErrMax= 7.24D-03 EMaxC= 1.00D-01 BMatC= 2.42D-03 BMatP= 1.25D-01
 IDIUse=3 WtCom= 9.28D-01 WtEn= 7.24D-02
 Coeff-Com:  0.204D-03-0.344D-01 0.445D-01 0.990D+00
 Coeff-En:   0.000D+00 0.000D+00 0.000D+00 0.100D+01
 Coeff:      0.189D-03-0.319D-01 0.413D-01 0.990D+00
 Gap=     0.808 Goal=   None    Shift=    0.000
 Gap=     0.808 Goal=   None    Shift=    0.000
 RMSDP=1.25D-03 MaxDP=9.19D-03 DE=-3.05D-02 OVMax= 9.47D-03

 Cycle   5  Pass 1  IDiag  1:
 E= -39.6989315169072     Delta-E=       -0.000710528135 Rises=F Damp=F
 DIIS: error= 8.17D-04 at cycle   5 NSaved=   5.
 NSaved= 5 IEnMin= 5 EnMin= -39.6989315169072     IErMin= 5 ErrMin= 8.17D-04
 ErrMax= 8.17D-04 EMaxC= 1.00D-01 BMatC= 1.84D-05 BMatP= 2.42D-03
 IDIUse=3 WtCom= 9.92D-01 WtEn= 8.17D-03
 Coeff-Com: -0.176D-03 0.100D-01-0.320D-01-0.379D+00 0.140D+01
 Coeff-En:   0.000D+00 0.000D+00 0.000D+00 0.000D+00 0.100D+01
 Coeff:     -0.175D-03 0.995D-02-0.318D-01-0.376D+00 0.140D+01
 Gap=     0.807 Goal=   None    Shift=    0.000
 Gap=     0.807 Goal=   None    Shift=    0.000
 RMSDP=3.59D-04 MaxDP=1.47D-03 DE=-7.11D-04 OVMax= 1.66D-03

 Cycle   6  Pass 1  IDiag  1:
 E= -39.6989415830898     Delta-E=       -0.000010066183 Rises=F Damp=F
 DIIS: error= 5.03D-05 at cycle   6 NSaved=   6.
 NSaved= 6 IEnMin= 6 EnMin= -39.6989415830898     IErMin= 6 ErrMin= 5.03D-05
 ErrMax= 5.03D-05 EMaxC= 1.00D-01 BMatC= 9.13D-08 BMatP= 1.84D-05
 IDIUse=1 WtCom= 1.00D+00 WtEn= 0.00D+00
 Coeff-Com:  0.499D-04-0.156D-02 0.551D-02 0.635D-01-0.269D+00 0.120D+01
 Coeff:      0.499D-04-0.156D-02 0.551D-02 0.635D-01-0.269D+00 0.120D+01
 Gap=     0.807 Goal=   None    Shift=    0.000
 Gap=     0.807 Goal=   None    Shift=    0.000
 RMSDP=1.92D-05 MaxDP=1.09D-04 DE=-1.01D-05 OVMax= 1.07D-04

 Cycle   7  Pass 1  IDiag  1:
 E= -39.6989416288154     Delta-E=       -0.000000045726 Rises=F Damp=F
 DIIS: error= 4.84D-06 at cycle   7 NSaved=   7.
 NSaved= 7 IEnMin= 7 EnMin= -39.6989416288154     IErMin= 7 ErrMin= 4.84D-06
 ErrMax= 4.84D-06 EMaxC= 1.00D-01 BMatC= 1.07D-09 BMatP= 9.13D-08
 IDIUse=1 WtCom= 1.00D+00 WtEn= 0.00D+00
 Coeff-Com: -0.687D-05 0.137D-03-0.477D-03-0.555D-02 0.223D-01-0.166D+00
 Coeff-Com:  0.115D+01
 Coeff:     -0.687D-05 0.137D-03-0.477D-03-0.555D-02 0.223D-01-0.166D+00
 Coeff:      0.115D+01
 Gap=     0.807 Goal=   None    Shift=    0.000
 Gap=     0.807 Goal=   None    Shift=    0.000
 RMSDP=1.84D-06 MaxDP=1.11D-05 DE=-4.57D-08 OVMax= 1.37D-05

 Cycle   8  Pass 1  IDiag  1:
 E= -39.6989416293733     Delta-E=       -0.000000000558 Rises=F Damp=F
 DIIS: error= 7.16D-07 at cycle   8 NSaved=   8.
 NSaved= 8 IEnMin= 8 EnMin= -39.6989416293733     IErMin= 8 ErrMin= 7.16D-07
 ErrMax= 7.16D-07 EMaxC= 1.00D-01 BMatC= 2.62D-11 BMatP= 1.07D-09
 IDIUse=1 WtCom= 1.00D+00 WtEn= 0.00D+00
 Coeff-Com:  0.802D-06-0.224D-04 0.801D-04 0.869D-03-0.288D-02 0.238D-01
 Coeff-Com: -0.265D+00 0.124D+01
 Coeff:      0.802D-06-0.224D-04 0.801D-04 0.869D-03-0.288D-02 0.238D-01
 Coeff:     -0.265D+00 0.124D+01
 Gap=     0.807 Goal=   None    Shift=    0.000
 Gap=     0.807 Goal=   None    Shift=    0.000
 RMSDP=3.65D-07 MaxDP=1.21D-06 DE=-5.58D-10 OVMax= 1.74D-06

 Cycle   9  Pass 1  IDiag  1:
 E= -39.6989416293860     Delta-E=       -0.000000000013 Rises=F Damp=F
 DIIS: error= 5.91D-08 at cycle   9 NSaved=   9.
 NSaved= 9 IEnMin= 9 EnMin= -39.6989416293860     IErMin= 9 ErrMin= 5.91D-08
 ErrMax= 5.91D-08 EMaxC= 1.00D-01 BMatC= 1.76D-13 BMatP= 2.62D-11
 IDIUse=1 WtCom= 1.00D+00 WtEn= 0.00D+00
 Coeff-Com: -0.204D-07 0.116D-05-0.518D-05-0.469D-04 0.474D-04-0.152D-02
 Coeff-Com:  0.355D-01-0.252D+00 0.122D+01
 Coeff:     -0.204D-07 0.116D-05-0.518D-05-0.469D-04 0.474D-04-0.152D-02
 Coeff:      0.355D-01-0.252D+00 0.122D+01
 Gap=     0.807 Goal=   None    Shift=    0.000
 Gap=     0.807 Goal=   None    Shift=    0.000
 RMSDP=7.32D-08 MaxDP=4.94D-07 DE=-1.27D-11 OVMax= 2.30D-07

 Cycle  10  Pass 1  IDiag  1:
 E= -39.6989416293860     Delta-E=        0.000000000000 Rises=F Damp=F
 DIIS: error= 3.39D-09 at cycle  10 NSaved=  10.
 NSaved=10 IEnMin=10 EnMin= -39.6989416293860     IErMin=10 ErrMin= 3.39D-09
 ErrMax= 3.39D-09 EMaxC= 1.00D-01 BMatC= 8.53D-16 BMatP= 1.76D-13
 IDIUse=1 WtCom= 1.00D+00 WtEn= 0.00D+00
 Coeff-Com: -0.218D-08 0.247D-07 0.476D-07-0.731D-06 0.202D-04 0.242D-04
 Coeff-Com: -0.328D-02 0.294D-01-0.185D+00 0.116D+01
 Coeff:     -0.218D-08 0.247D-07 0.476D-07-0.731D-06 0.202D-04 0.242D-04
 Coeff:     -0.328D-02 0.294D-01-0.185D+00 0.116D+01
 Gap=     0.807 Goal=   None    Shift=    0.000
 Gap=     0.807 Goal=   None    Shift=    0.000
 RMSDP=5.50D-09 MaxDP=3.28D-08 DE=-2.84D-14 OVMax= 1.26D-08

 SCF Done:  E(UHF) =  -39.6989416294     A.U. after   10 cycles
             Convg  =    0.5496D-08             -V/T =  1.9535
 <Sx>= 0.0000 <Sy>= 0.0000 <Sz>= 0.0000 <S**2>= 0.0000 S= 0.0000
 <L.S>= 0.000000000000E+00
 KE= 4.163403195524D+01 PE=-1.254575270846D+02 EE= 2.794135210825D+01
 Annihilation of the first spin contaminant:
 S**2 before annihilation     0.0000,   after     0.0000
 Leave Link  502 at Sun Apr 10 21:25:53 2016, MaxMem=   33554432 cpu:       0.1
 (Enter /software/gaussian-09RevA.02-el6-x86_64/g09/l701.exe)
 Compute integral first derivatives.
 ... and contract with generalized density number  0.
 Leave Link  701 at Sun Apr 10 21:25:53 2016, MaxMem=   33554432 cpu:       0.1
 (Enter /software/gaussian-09RevA.02-el6-x86_64/g09/l702.exe)
 L702 exits ... SP integral derivatives will be done elsewhere.
 Leave Link  702 at Sun Apr 10 21:25:53 2016, MaxMem=   33554432 cpu:       0.0
 (Enter /software/gaussian-09RevA.02-el6-x86_64/g09/l703.exe)
 Compute integral first derivatives, UseDBF=F ICtDFT=           0.
 Integral derivatives from FoFDir, PRISM(SPDF).
 Calling FoFJK, ICntrl=      2127 FMM=F ISym2X=0 I1Cent= 0 IOpClX= 1 NMat=1 NMatS=1 NMatT=0.
 FoFCou: FMM=F IPFlag=           0 FMFlag=      100000 FMFlg1=         800
         NFxFlg=           0 DoJE=F BraDBF=F KetDBF=F FulRan=T
         Omega=  0.000000  0.000000  1.000000  0.000000  0.000000 ICntrl=    2127 IOpCl=  1
         NMat0=    1 NMatS0=    1 NMatT0=    0 NMatD0=    1 NMtDS0=    0 NMtDT0=    0
         I1Cent=           0 NGrid=           0.
 Symmetry not used in FoFCou.
 Leave Link  703 at Sun Apr 10 21:25:53 2016, MaxMem=   33554432 cpu:       0.1
 (Enter /software/gaussian-09RevA.02-el6-x86_64/g09/l716.exe)
 Dipole        = 8.03139921D-04-1.40589844D-05-1.52737988D-02
 ***** Axes restored to original set *****
 -------------------------------------------------------------------
 Center     Atomic                   Forces (Hartrees/Bohr)
 Number     Number              X              Y              Z
 -------------------------------------------------------------------
      1        6           0.000251879    0.000361209   -1.779994075
      2        1          -0.000046037   -0.000006644    1.780117858
      3        1           0.000262428   -0.000338231   -0.000005493
      4        1          -0.000044301   -0.000075901   -0.000137890
      5        1          -0.000423970    0.000059567    0.000019601
 -------------------------------------------------------------------
 Cartesian Forces:  Max     1.780117858 RMS     0.649984568
 -----------------------------------------------------------------------------------------------
                       Internal Coordinate Forces (Hartree/Bohr or radian)
  Cent   Atom   N1       Length/X         N2         Alpha/Y        N3         Beta/Z          J
 -----------------------------------------------------------------------------------------------
      1  C 
      2  H        1   1.780118(     1)
      3  H        1   0.000246(     2)      2  -0.000452(     5)
      4  H        1   0.000132(     3)      3  -0.000630(     6)      2   0.000279(     8)     0
      5  H        1   0.000237(     4)      4  -0.000454(     7)      2   0.000541(     9)     0
 -----------------------------------------------------------------------------------------------
 Internal  Forces:  Max     1.780117858 RMS     0.593372742
 Leave Link  716 at Sun Apr 10 21:25:53 2016, MaxMem=   33554432 cpu:       0.1
 (Enter /software/gaussian-09RevA.02-el6-x86_64/g09/l103.exe)

 GradGradGradGradGradGradGradGradGradGradGradGradGradGradGradGradGradGrad
 Berny optimization.
 Search for a local minimum.
 Step number   2 out of a maximum of   20 on scan point     1 out of    31
 All quantities printed in internal units (Hartrees-Bohrs-Radians)
 Update second derivatives using D2CorN and points    1    2
 DE= -7.49D-04 DEPred=-7.51D-04 R= 9.97D-01
 SS=  1.41D+00  RLast= 9.24D-02 DXNew= 5.0454D-01 2.7718D-01
 Trust test= 9.97D-01 RLast= 9.24D-02 DXMaxT set to 3.00D-01
 The second derivative matrix:
                          B1        B2        B3        B4        A1
           B1           3.62830
           B2          -0.00039   0.37199
           B3          -0.00039  -0.00023   0.37214
           B4          -0.00039  -0.00031  -0.00023   0.37200
           A1          -0.00122  -0.00015   0.00010  -0.00013   0.30384
           A2           0.00122   0.00089   0.00064   0.00086   0.13992
           A3           0.00122   0.00077   0.00052   0.00075   0.03839
           D1           0.00149   0.00037   0.00007   0.00034   0.03042
           D2           0.00149   0.00019  -0.00011   0.00016  -0.13386
                          A2        A3        D1        D2
           A2           0.29809
           A3           0.03845   0.23999
           D1           0.03133  -0.06658   0.16402
           D2          -0.13024   0.00050   0.00328   0.21834
     Eigenvalues ---    0.08005   0.14951   0.16116   0.27759   0.37153
     Eigenvalues ---    0.37230   0.37232   0.555941000.00000
 RFO step:  Lambda=-3.06162104D-06 EMin= 8.00524577D-02
 Quartic linear search produced a step of -0.00427.
 Variable       Old X    -DE/DX   Delta X   Delta X   Delta X     New X
                                 (Linear)    (Quad)   (Total)
    B1        1.13384   1.78012   0.00000   0.00000   0.00000   1.13384
    B2        2.03366   0.00025  -0.00005   0.00071   0.00066   2.03432
    B3        2.03366   0.00013  -0.00005   0.00041   0.00036   2.03402
    B4        2.03366   0.00024  -0.00005   0.00069   0.00064   2.03430
    A1        1.94749  -0.00045  -0.00016   0.00000  -0.00016   1.94733
    A2        1.87384  -0.00063   0.00016  -0.00151  -0.00135   1.87248
    A3        1.87383  -0.00045   0.00016  -0.00142  -0.00126   1.87257
    D1       -2.13936   0.00028   0.00019   0.00124   0.00143  -2.13793
    D2       -2.13957   0.00054   0.00019   0.00135   0.00155  -2.13802
         Item               Value     Threshold  Converged?
 Maximum Force            0.000630     0.000450     NO 
 RMS     Force            0.000405     0.000300     NO 
 Maximum Displacement     0.001546     0.001800     YES
 RMS     Displacement     0.000993     0.001200     YES
 Predicted change in Energy=-1.551563D-06
 GradGradGradGradGradGradGradGradGradGradGradGradGradGradGradGradGradGrad

 Leave Link  103 at Sun Apr 10 21:25:53 2016, MaxMem=   33554432 cpu:       0.0
 (Enter /software/gaussian-09RevA.02-el6-x86_64/g09/l202.exe)
 ---------------------------------------------------------------------------------------------------
                            Z-MATRIX (ANGSTROMS AND DEGREES)
   CD    Cent   Atom    N1       Length/X        N2       Alpha/Y        N3        Beta/Z          J
 ---------------------------------------------------------------------------------------------------
      1      1  C 
      2      2  H        1   0.600000(     1)
      3      3  H        1   1.076518(     2)      2  111.574(     5)
      4      4  H        1   1.076357(     3)      3  107.285(     6)      2 -122.494(     8)      0
      5      5  H        1   1.076505(     4)      4  107.290(     7)      2 -122.500(     9)      0
 ---------------------------------------------------------------------------------------------------
                         Z-Matrix orientation:                         
 ---------------------------------------------------------------------
 Center     Atomic      Atomic             Coordinates (Angstroms)
 Number     Number       Type             X           Y           Z
 ---------------------------------------------------------------------
      1          6           0        0.000000    0.000000    0.000000
      2          1           0        0.000000    0.000000    0.600000
      3          1           0        1.001103    0.000000   -0.395835
      4          1           0       -0.500429   -0.866846   -0.395846
      5          1           0       -0.500465    0.866988   -0.395891
 ---------------------------------------------------------------------
                    Distance matrix (angstroms):
                    1          2          3          4          5
     1  C    0.000000
     2  H    0.600000   0.000000
     3  H    1.076518   1.412053   0.000000
     4  H    1.076357   1.411935   1.733787   0.000000
     5  H    1.076505   1.412066   1.733889   1.733834   0.000000
 Stoichiometry    CH4
 Framework group  C1[X(CH4)]
 Deg. of freedom     9
 Full point group                 C1      NOp   1
 Largest Abelian subgroup         C1      NOp   1
 Largest concise Abelian subgroup C1      NOp   1
                         Standard orientation:                         
 ---------------------------------------------------------------------
 Center     Atomic      Atomic             Coordinates (Angstroms)
 Number     Number       Type             X           Y           Z
 ---------------------------------------------------------------------
      1          6           0        0.000005    0.000025    0.058757
      2          1           0        0.000005    0.000025    0.658757
      3          1           0       -0.726160   -0.689099   -0.337077
      4          1           0       -0.233707    0.973282   -0.337089
      5          1           0        0.959829   -0.284356   -0.337134
 ---------------------------------------------------------------------
 Rotational constants (GHZ):    216.9488449    216.9296424    166.8075009
 Leave Link  202 at Sun Apr 10 21:25:53 2016, MaxMem=   33554432 cpu:       0.0
 (Enter /software/gaussian-09RevA.02-el6-x86_64/g09/l301.exe)
 Standard basis: 6-31G (6D, 7F)
 Ernie: Thresh=  0.10000D-02 Tol=  0.10000D-05 Strict=F.
 There are    17 symmetry adapted basis functions of A   symmetry.
 Integral buffers will be    131072 words long.
 Raffenetti 2 integral format.
 Two-electron integral symmetry is turned on.
    17 basis functions,    38 primitive gaussians,    17 cartesian basis functions
     5 alpha electrons        5 beta electrons
       nuclear repulsion energy        16.1803123718 Hartrees.
 IExCor=    0 DFT=F Ex=HF Corr=None ExCW=0 ScaHFX=  1.000000
 ScaDFX=  1.000000  1.000000  1.000000  1.000000 ScalE2=  1.000000  1.000000
 IRadAn=      0 IRanWt=     -1 IRanGd=            0 ICorTp=0
 NAtoms=    5 NActive=    5 NUniq=    5 SFac= 7.50D-01 NAtFMM=   80 NAOKFM=F Big=F
 Leave Link  301 at Sun Apr 10 21:25:53 2016, MaxMem=   33554432 cpu:       0.1
 (Enter /software/gaussian-09RevA.02-el6-x86_64/g09/l302.exe)
 NPDir=0 NMtPBC=     1 NCelOv=     1 NCel=       1 NClECP=     1 NCelD=      1
         NCelK=      1 NCelE2=     1 NClLst=     1 CellRange=     0.0.
 One-electron integrals computed using PRISM.
 NBasis=    17 RedAO= T  NBF=    17
 NBsUse=    17 1.00D-06 NBFU=    17
 Leave Link  302 at Sun Apr 10 21:25:54 2016, MaxMem=   33554432 cpu:       0.2
 (Enter /software/gaussian-09RevA.02-el6-x86_64/g09/l303.exe)
 DipDrv:  MaxL=1.
 Leave Link  303 at Sun Apr 10 21:25:54 2016, MaxMem=   33554432 cpu:       0.0
 (Enter /software/gaussian-09RevA.02-el6-x86_64/g09/l401.exe)
 Initial guess read from the read-write file.
 B after Tr=     0.000000    0.000000    0.000000
         Rot=    1.000000    0.000000    0.000000    0.000000 Ang=   0.00 deg.
 Guess basis will be translated and rotated to current coordinates.
 Initial guess orbital symmetries:
 Alpha Orbitals:
       Occupied  (A) (A) (A) (A) (A)
       Virtual   (A) (A) (A) (A) (A) (A) (A) (A) (A) (A) (A) (A)
 Beta  Orbitals:
       Occupied  (A) (A) (A) (A) (A)
       Virtual   (A) (A) (A) (A) (A) (A) (A) (A) (A) (A) (A) (A)
 The electronic state of the initial guess is 1-A.
 Initial guess <Sx>= 0.0000 <Sy>= 0.0000 <Sz>= 0.0000 <S**2>= 0.0000 S= 0.0000
 Leave Link  401 at Sun Apr 10 21:25:54 2016, MaxMem=   33554432 cpu:       0.2
 (Enter /software/gaussian-09RevA.02-el6-x86_64/g09/l502.exe)
 UHF open shell SCF:
 Requested convergence on RMS density matrix=1.00D-08 within 128 cycles.
 Requested convergence on MAX density matrix=1.00D-06.
 Requested convergence on             energy=1.00D-06.
 No special actions if energy rises.
 Using DIIS extrapolation, IDIIS=  1040.
 Integral symmetry usage will be decided dynamically.
 Keep R1 and R2 ints in memory in canonical form, NReq=843342.
 IEnd=       19759 IEndB=       19759 NGot=    33554432 MDV=    33528186
 LenX=    33528186 LenY=    33527304
 Symmetry not used in FoFDir.
 MinBra= 0 MaxBra= 1 Meth= 1.
 IRaf=       0 NMat=   1 IRICut=       1 DoRegI=T DoRafI=F ISym2E= 0 JSym2E=0.

 Cycle   1  Pass 1  IDiag  1:
 E= -39.2847346997103    
 DIIS: error= 1.27D-01 at cycle   1 NSaved=   1.
 NSaved= 1 IEnMin= 1 EnMin= -39.2847346997103     IErMin= 1 ErrMin= 1.27D-01
 ErrMax= 1.27D-01 EMaxC= 1.00D-01 BMatC= 7.57D-01 BMatP= 7.57D-01
 IDIUse=3 WtCom= 0.00D+00 WtEn= 1.00D+00
 Coeff-Com:  0.100D+01
 Coeff-En:   0.100D+01
 Coeff:      0.100D+01
 Gap=     0.692 Goal=   None    Shift=    0.000
 Gap=     0.692 Goal=   None    Shift=    0.000
 GapD=    0.692 DampG=2.000 DampE=0.250 DampFc=0.5000 IDamp=-1.
 Damping current iteration by 5.00D-01
 RMSDP=2.81D-02 MaxDP=1.37D-01              OVMax= 2.12D-01

 Cycle   2  Pass 1  IDiag  1:
 E= -39.4478972151133     Delta-E=       -0.163162515403 Rises=F Damp=T
 DIIS: error= 8.14D-02 at cycle   2 NSaved=   2.
 NSaved= 2 IEnMin= 2 EnMin= -39.4478972151133     IErMin= 2 ErrMin= 8.14D-02
 ErrMax= 8.14D-02 EMaxC= 1.00D-01 BMatC= 3.11D-01 BMatP= 7.57D-01
 IDIUse=3 WtCom= 1.86D-01 WtEn= 8.14D-01
 Coeff-Com: -0.165D+01 0.265D+01
 Coeff-En:   0.000D+00 0.100D+01
 Coeff:     -0.307D+00 0.131D+01
 Gap=     0.790 Goal=   None    Shift=    0.000
 Gap=     0.790 Goal=   None    Shift=    0.000
 RMSDP=1.99D-02 MaxDP=9.27D-02 DE=-1.63D-01 OVMax= 4.82D-02

 Cycle   3  Pass 1  IDiag  1:
 E= -39.6849209865277     Delta-E=       -0.237023771414 Rises=F Damp=F
 DIIS: error= 2.20D-02 at cycle   3 NSaved=   3.
 NSaved= 3 IEnMin= 3 EnMin= -39.6849209865277     IErMin= 3 ErrMin= 2.20D-02
 ErrMax= 2.20D-02 EMaxC= 1.00D-01 BMatC= 2.15D-02 BMatP= 3.11D-01
 IDIUse=3 WtCom= 7.80D-01 WtEn= 2.20D-01
 Coeff-Com:  0.478D+00-0.116D+01 0.168D+01
 Coeff-En:   0.000D+00 0.000D+00 0.100D+01
 Coeff:      0.373D+00-0.905D+00 0.153D+01
 Gap=     0.806 Goal=   None    Shift=    0.000
 Gap=     0.806 Goal=   None    Shift=    0.000
 RMSDP=8.64D-03 MaxDP=3.83D-02 DE=-2.37D-01 OVMax= 5.60D-02

 Cycle   4  Pass 1  IDiag  1:
 E= -39.6986836523490     Delta-E=       -0.013762665821 Rises=F Damp=F
 DIIS: error= 2.41D-03 at cycle   4 NSaved=   4.
 NSaved= 4 IEnMin= 4 EnMin= -39.6986836523490     IErMin= 4 ErrMin= 2.41D-03
 ErrMax= 2.41D-03 EMaxC= 1.00D-01 BMatC= 3.11D-04 BMatP= 2.15D-02
 IDIUse=3 WtCom= 9.76D-01 WtEn= 2.41D-02
 Coeff-Com: -0.246D-01 0.944D-01-0.344D+00 0.127D+01
 Coeff-En:   0.000D+00 0.000D+00 0.000D+00 0.100D+01
 Coeff:     -0.240D-01 0.922D-01-0.336D+00 0.127D+01
 Gap=     0.807 Goal=   None    Shift=    0.000
 Gap=     0.807 Goal=   None    Shift=    0.000
 RMSDP=1.83D-03 MaxDP=7.82D-03 DE=-1.38D-02 OVMax= 9.72D-03

 Cycle   5  Pass 1  IDiag  1:
 E= -39.6989417470107     Delta-E=       -0.000258094662 Rises=F Damp=F
 DIIS: error= 1.64D-04 at cycle   5 NSaved=   5.
 NSaved= 5 IEnMin= 5 EnMin= -39.6989417470107     IErMin= 5 ErrMin= 1.64D-04
 ErrMax= 1.64D-04 EMaxC= 1.00D-01 BMatC= 2.75D-06 BMatP= 3.11D-04
 IDIUse=3 WtCom= 9.98D-01 WtEn= 1.64D-03
 Coeff-Com:  0.209D-01-0.406D-01 0.412D-01-0.124D+00 0.110D+01
 Coeff-En:   0.000D+00 0.000D+00 0.000D+00 0.000D+00 0.100D+01
 Coeff:      0.209D-01-0.406D-01 0.412D-01-0.124D+00 0.110D+01
 Gap=     0.808 Goal=   None    Shift=    0.000
 Gap=     0.808 Goal=   None    Shift=    0.000
 RMSDP=1.47D-04 MaxDP=5.42D-04 DE=-2.58D-04 OVMax= 6.57D-04

 Cycle   6  Pass 1  IDiag  1:
 E= -39.6989431398655     Delta-E=       -0.000001392855 Rises=F Damp=F
 DIIS: error= 1.53D-05 at cycle   6 NSaved=   6.
 NSaved= 6 IEnMin= 6 EnMin= -39.6989431398655     IErMin= 6 ErrMin= 1.53D-05
 ErrMax= 1.53D-05 EMaxC= 1.00D-01 BMatC= 1.71D-08 BMatP= 2.75D-06
 IDIUse=1 WtCom= 1.00D+00 WtEn= 0.00D+00
 Coeff-Com: -0.185D-02 0.322D-02-0.134D-02 0.547D-02-0.150D+00 0.114D+01
 Coeff:     -0.185D-02 0.322D-02-0.134D-02 0.547D-02-0.150D+00 0.114D+01
 Gap=     0.808 Goal=   None    Shift=    0.000
 Gap=     0.808 Goal=   None    Shift=    0.000
 RMSDP=9.00D-06 MaxDP=3.85D-05 DE=-1.39D-06 OVMax= 3.92D-05

 Cycle   7  Pass 1  IDiag  1:
 E= -39.6989431482359     Delta-E=       -0.000000008370 Rises=F Damp=F
 DIIS: error= 2.50D-06 at cycle   7 NSaved=   7.
 NSaved= 7 IEnMin= 7 EnMin= -39.6989431482359     IErMin= 7 ErrMin= 2.50D-06
 ErrMax= 2.50D-06 EMaxC= 1.00D-01 BMatC= 3.27D-10 BMatP= 1.71D-08
 IDIUse=1 WtCom= 1.00D+00 WtEn= 0.00D+00
 Coeff-Com:  0.274D-04-0.414D-04-0.182D-04-0.749D-03 0.164D-01-0.216D+00
 Coeff-Com:  0.120D+01
 Coeff:      0.274D-04-0.414D-04-0.182D-04-0.749D-03 0.164D-01-0.216D+00
 Coeff:      0.120D+01
 Gap=     0.808 Goal=   None    Shift=    0.000
 Gap=     0.808 Goal=   None    Shift=    0.000
 RMSDP=1.25D-06 MaxDP=5.25D-06 DE=-8.37D-09 OVMax= 5.81D-06

 Cycle   8  Pass 1  IDiag  1:
 E= -39.6989431483859     Delta-E=       -0.000000000150 Rises=F Damp=F
 DIIS: error= 3.83D-08 at cycle   8 NSaved=   8.
 NSaved= 8 IEnMin= 8 EnMin= -39.6989431483859     IErMin= 8 ErrMin= 3.83D-08
 ErrMax= 3.83D-08 EMaxC= 1.00D-01 BMatC= 2.85D-13 BMatP= 3.27D-10
 IDIUse=1 WtCom= 1.00D+00 WtEn= 0.00D+00
 Coeff-Com: -0.220D-05 0.376D-05-0.102D-05 0.103D-03-0.190D-02 0.239D-01
 Coeff-Com: -0.141D+00 0.112D+01
 Coeff:     -0.220D-05 0.376D-05-0.102D-05 0.103D-03-0.190D-02 0.239D-01
 Coeff:     -0.141D+00 0.112D+01
 Gap=     0.808 Goal=   None    Shift=    0.000
 Gap=     0.808 Goal=   None    Shift=    0.000
 RMSDP=5.24D-08 MaxDP=3.57D-07 DE=-1.50D-10 OVMax= 1.54D-07

 Cycle   9  Pass 1  IDiag  1:
 E= -39.6989431483861     Delta-E=        0.000000000000 Rises=F Damp=F
 DIIS: error= 1.19D-08 at cycle   9 NSaved=   9.
 NSaved= 9 IEnMin= 9 EnMin= -39.6989431483861     IErMin= 9 ErrMin= 1.19D-08
 ErrMax= 1.19D-08 EMaxC= 1.00D-01 BMatC= 9.21D-15 BMatP= 2.85D-13
 IDIUse=1 WtCom= 1.00D+00 WtEn= 0.00D+00
 Coeff-Com: -0.231D-06 0.510D-06-0.545D-06-0.220D-04 0.385D-03-0.459D-02
 Coeff-Com:  0.267D-01-0.268D+00 0.125D+01
 Coeff:     -0.231D-06 0.510D-06-0.545D-06-0.220D-04 0.385D-03-0.459D-02
 Coeff:      0.267D-01-0.268D+00 0.125D+01
 Gap=     0.808 Goal=   None    Shift=    0.000
 Gap=     0.808 Goal=   None    Shift=    0.000
 RMSDP=9.64D-09 MaxDP=3.62D-08 DE=-1.42D-13 OVMax= 2.27D-08

 SCF Done:  E(UHF) =  -39.6989431484     A.U. after    9 cycles
             Convg  =    0.9639D-08             -V/T =  1.9536
 <Sx>= 0.0000 <Sy>= 0.0000 <Sz>= 0.0000 <S**2>= 0.0000 S= 0.0000
 <L.S>= 0.000000000000E+00
 KE= 4.163274347943D+01 PE=-1.254507406175D+02 EE= 2.793874161789D+01
 Annihilation of the first spin contaminant:
 S**2 before annihilation     0.0000,   after     0.0000
 Leave Link  502 at Sun Apr 10 21:25:54 2016, MaxMem=   33554432 cpu:       0.1
 (Enter /software/gaussian-09RevA.02-el6-x86_64/g09/l701.exe)
 Compute integral first derivatives.
 ... and contract with generalized density number  0.
 Leave Link  701 at Sun Apr 10 21:25:54 2016, MaxMem=   33554432 cpu:       0.1
 (Enter /software/gaussian-09RevA.02-el6-x86_64/g09/l702.exe)
 L702 exits ... SP integral derivatives will be done elsewhere.
 Leave Link  702 at Sun Apr 10 21:25:54 2016, MaxMem=   33554432 cpu:       0.0
 (Enter /software/gaussian-09RevA.02-el6-x86_64/g09/l703.exe)
 Compute integral first derivatives, UseDBF=F ICtDFT=           0.
 Integral derivatives from FoFDir, PRISM(SPDF).
 Calling FoFJK, ICntrl=      2127 FMM=F ISym2X=0 I1Cent= 0 IOpClX= 1 NMat=1 NMatS=1 NMatT=0.
 FoFCou: FMM=F IPFlag=           0 FMFlag=      100000 FMFlg1=         800
         NFxFlg=           0 DoJE=F BraDBF=F KetDBF=F FulRan=T
         Omega=  0.000000  0.000000  1.000000  0.000000  0.000000 ICntrl=    2127 IOpCl=  1
         NMat0=    1 NMatS0=    1 NMatT0=    0 NMatD0=    1 NMtDS0=    0 NMtDT0=    0
         I1Cent=           0 NGrid=           0.
 Symmetry not used in FoFCou.
 Leave Link  703 at Sun Apr 10 21:25:54 2016, MaxMem=   33554432 cpu:       0.1
 (Enter /software/gaussian-09RevA.02-el6-x86_64/g09/l716.exe)
 Dipole        =-2.10398342D-05 3.76671577D-05-1.49715632D-02
 ***** Axes restored to original set *****
 -------------------------------------------------------------------
 Center     Atomic                   Forces (Hartrees/Bohr)
 Number     Number              X              Y              Z
 -------------------------------------------------------------------
      1        6           0.000068934    0.000077213   -1.780120754
      2        1          -0.000005014    0.000005672    1.780151775
      3        1          -0.000055271    0.000000664    0.000004508
      4        1          -0.000028823   -0.000037999   -0.000038653
      5        1           0.000020174   -0.000045549    0.000003125
 -------------------------------------------------------------------
 Cartesian Forces:  Max     1.780151775 RMS     0.650013859
 -----------------------------------------------------------------------------------------------
                       Internal Coordinate Forces (Hartree/Bohr or radian)
  Cent   Atom   N1       Length/X         N2         Alpha/Y        N3         Beta/Z          J
 -----------------------------------------------------------------------------------------------
      1  C 
      2  H        1   1.780152(     1)
      3  H        1  -0.000053(     2)      2   0.000024(     5)
      4  H        1   0.000058(     3)      3  -0.000009(     6)      2  -0.000016(     8)     0
      5  H        1  -0.000047(     4)      4  -0.000026(     7)      2  -0.000020(     9)     0
 -----------------------------------------------------------------------------------------------
 Internal  Forces:  Max     1.780151775 RMS     0.593383926
 Leave Link  716 at Sun Apr 10 21:25:54 2016, MaxMem=   33554432 cpu:       0.0
 (Enter /software/gaussian-09RevA.02-el6-x86_64/g09/l103.exe)

 GradGradGradGradGradGradGradGradGradGradGradGradGradGradGradGradGradGrad
 Berny optimization.
 Search for a local minimum.
 Step number   3 out of a maximum of   20 on scan point     1 out of    31
 All quantities printed in internal units (Hartrees-Bohrs-Radians)
 Update second derivatives using D2CorN and points    1    2    3
 DE= -1.52D-06 DEPred=-1.55D-06 R= 9.79D-01
 SS=  1.41D+00  RLast= 2.98D-03 DXNew= 5.0454D-01 8.9337D-03
 Trust test= 9.79D-01 RLast= 2.98D-03 DXMaxT set to 3.00D-01
 The second derivative matrix:
                          B1        B2        B3        B4        A1
           B1           3.62830
           B2          -0.00193   0.37596
           B3          -0.00132  -0.00142   0.36963
           B4          -0.00188   0.00336  -0.00145   0.37539
           A1          -0.00159  -0.00150   0.00001  -0.00140   0.30505
           A2           0.00460  -0.00265   0.00564  -0.00223   0.14188
           A3           0.00442  -0.00189   0.00553  -0.00153   0.03992
           D1          -0.00053   0.00537  -0.00403   0.00486   0.02780
           D2          -0.00075   0.00561  -0.00458   0.00505  -0.13694
                          A2        A3        D1        D2
           A2           0.29576
           A3           0.03499   0.23559
           D1           0.03010  -0.06616   0.16672
           D2          -0.13147   0.00104   0.00673   0.22260
     Eigenvalues ---    0.07981   0.15274   0.15849   0.27405   0.36944
     Eigenvalues ---    0.37230   0.37977   0.560081000.00000
 RFO step:  Lambda=-3.21861136D-08 EMin= 7.98137337D-02
 Quartic linear search produced a step of -0.01794.
 Variable       Old X    -DE/DX   Delta X   Delta X   Delta X     New X
                                 (Linear)    (Quad)   (Total)
    B1        1.13384   1.78015   0.00000   0.00000   0.00000   1.13384
    B2        2.03432  -0.00005  -0.00001  -0.00012  -0.00014   2.03419
    B3        2.03402   0.00006  -0.00001   0.00016   0.00016   2.03418
    B4        2.03430  -0.00005  -0.00001  -0.00011  -0.00012   2.03418
    A1        1.94733   0.00002   0.00000   0.00013   0.00013   1.94746
    A2        1.87248  -0.00001   0.00002  -0.00010  -0.00008   1.87240
    A3        1.87257  -0.00003   0.00002  -0.00019  -0.00017   1.87240
    D1       -2.13793  -0.00002  -0.00003  -0.00013  -0.00016  -2.13809
    D2       -2.13802  -0.00002  -0.00003  -0.00001  -0.00004  -2.13806
         Item               Value     Threshold  Converged?
 Maximum Force            0.000058     0.000450     YES
 RMS     Force            0.000036     0.000300     YES
 Maximum Displacement     0.000168     0.001800     YES
 RMS     Displacement     0.000123     0.001200     YES
 Predicted change in Energy=-1.688195D-08
 Optimization completed.
    -- Stationary point found.
                       ----------------------------
                       !   Optimized Parameters   !
                       ! (Angstroms and Degrees)  !
 ----------------------                            ----------------------
 !      Name          Value   Derivative information (Atomic Units)     !
 ------------------------------------------------------------------------
 !       B1          0.6      -DE/DX =    1.7802                        !
 !       B2          1.0765   -DE/DX =   -0.0001                        !
 !       B3          1.0764   -DE/DX =    0.0001                        !
 !       B4          1.0765   -DE/DX =    0.0                           !
 !       A1        111.5738   -DE/DX =    0.0                           !
 !       A2        107.2854   -DE/DX =    0.0                           !
 !       A3        107.2905   -DE/DX =    0.0                           !
 !       D1       -122.4944   -DE/DX =    0.0                           !
 !       D2       -122.4997   -DE/DX =    0.0                           !
 ------------------------------------------------------------------------
 GradGradGradGradGradGradGradGradGradGradGradGradGradGradGradGradGradGrad

 Leave Link  103 at Sun Apr 10 21:25:54 2016, MaxMem=   33554432 cpu:       0.0
 (Enter /software/gaussian-09RevA.02-el6-x86_64/g09/l202.exe)
 ---------------------------------------------------------------------------------------------------
                            Z-MATRIX (ANGSTROMS AND DEGREES)
   CD    Cent   Atom    N1       Length/X        N2       Alpha/Y        N3        Beta/Z          J
 ---------------------------------------------------------------------------------------------------
      1      1  C 
      2      2  H        1   0.700000(     1)
      3      3  H        1   1.076518(     2)      2  111.574(     5)
      4      4  H        1   1.076357(     3)      3  107.285(     6)      2 -122.494(     8)      0
      5      5  H        1   1.076505(     4)      4  107.290(     7)      2 -122.500(     9)      0
 ---------------------------------------------------------------------------------------------------
                         Z-Matrix orientation:                         
 ---------------------------------------------------------------------
 Center     Atomic      Atomic             Coordinates (Angstroms)
 Number     Number       Type             X           Y           Z
 ---------------------------------------------------------------------
      1          6           0        0.000000    0.000000    0.000000
      2          1           0        0.000000    0.000000    0.700000
      3          1           0        1.001103    0.000000   -0.395835
      4          1           0       -0.500429   -0.866846   -0.395846
      5          1           0       -0.500465    0.866988   -0.395891
 ---------------------------------------------------------------------
                    Distance matrix (angstroms):
                    1          2          3          4          5
     1  C    0.000000
     2  H    0.700000   0.000000
     3  H    1.076518   1.484271   0.000000
     4  H    1.076357   1.484160   1.733787   0.000000
     5  H    1.076505   1.484288   1.733889   1.733834   0.000000
 Stoichiometry    CH4
 Framework group  C1[X(CH4)]
 Deg. of freedom     9
 Full point group                 C1      NOp   1
 Largest Abelian subgroup         C1      NOp   1
 Largest concise Abelian subgroup C1      NOp   1
                         Standard orientation:                         
 ---------------------------------------------------------------------
 Center     Atomic      Atomic             Coordinates (Angstroms)
 Number     Number       Type             X           Y           Z
 ---------------------------------------------------------------------
      1          6           0        0.000005    0.000025    0.048757
      2          1           0        0.000005    0.000025    0.748757
      3          1           0       -0.726156   -0.689102   -0.347077
      4          1           0       -0.233712    0.973281   -0.347089
      5          1           0        0.959830   -0.284351   -0.347134
 ---------------------------------------------------------------------
 Rotational constants (GHZ):    204.8296426    204.8125258    166.8075007
 Leave Link  202 at Sun Apr 10 21:25:54 2016, MaxMem=   33554432 cpu:       0.0
 (Enter /software/gaussian-09RevA.02-el6-x86_64/g09/l301.exe)
[...]
    B1        6.80301  -0.03002   0.00000   0.00000   0.00000   6.80301
    B2        2.02032   0.00000   0.00000   0.00000   0.00000   2.02032
    B3        2.02031   0.00000   0.00000   0.00000   0.00000   2.02032
    B4        2.02032   0.00000   0.00000   0.00000   0.00000   2.02032
    A1        1.60644  -0.00002  -0.00003  -0.00002  -0.00005   1.60639
    A2        2.09239  -0.00004   0.00000  -0.00008  -0.00008   2.09232
    A3        2.09228  -0.00002   0.00000  -0.00006  -0.00006   2.09222
    D1       -1.63104  -0.00001   0.00005  -0.00003   0.00003  -1.63102
    D2       -1.63144   0.00001   0.00005  -0.00001   0.00004  -1.63139
         Item               Value     Threshold  Converged?
 Maximum Force            0.000035     0.000450     YES
 RMS     Force            0.000017     0.000300     YES
 Maximum Displacement     0.000076     0.001800     YES
 RMS     Displacement     0.000040     0.001200     YES
 Predicted change in Energy=-2.595556D-09
 Optimization completed.
    -- Stationary point found.
                       ----------------------------
                       !   Optimized Parameters   !
                       ! (Angstroms and Degrees)  !
 ----------------------                            ----------------------
 !      Name          Value   Derivative information (Atomic Units)     !
 ------------------------------------------------------------------------
 !       B1          3.6      -DE/DX =   -0.03                          !
 !       B2          1.0691   -DE/DX =    0.0                           !
 !       B3          1.0691   -DE/DX =    0.0                           !
 !       B4          1.0691   -DE/DX =    0.0                           !
 !       A1         92.0422   -DE/DX =    0.0                           !
 !       A2        119.8853   -DE/DX =    0.0                           !
 !       A3        119.8791   -DE/DX =    0.0                           !
 !       D1        -93.452    -DE/DX =    0.0                           !
 !       D2        -93.4744   -DE/DX =    0.0                           !
 ------------------------------------------------------------------------
 GradGradGradGradGradGradGradGradGradGradGradGradGradGradGradGradGradGrad

 Summary of Optimized Potential Surface Scan
                           1         2         3         4         5
     Eigenvalues --   -39.69894 -39.94984 -40.08251 -40.14812 -40.17524
           B1           0.60000   0.70000   0.80000   0.90000   1.00000
           B2           1.07652   1.08048   1.08240   1.08313   1.08290
           B3           1.07636   1.08062   1.08244   1.08314   1.08289
           B4           1.07650   1.08048   1.08240   1.08312   1.08289
           A1         111.57377 111.44708 111.16815 110.71518 110.10563
           A2         107.28535 107.41574 107.71015 108.19190 108.83720
           A3         107.29050 107.41735 107.71773 108.19953 108.83854
           D1        -122.49439-122.36645-122.03194-121.50647-120.78475
           D2        -122.49966-122.36217-122.03777-121.51193-120.78991
                           6         7         8         9        10
     Eigenvalues --   -40.18035 -40.17312 -40.15926 -40.14208 -40.12353
           B1           1.10000   1.20000   1.30000   1.40000   1.50000
           B2           1.08202   1.08077   1.07930   1.07780   1.07648
           B3           1.08200   1.08074   1.07926   1.07811   1.07643
           B4           1.08202   1.08078   1.07932   1.07773   1.07648
           A1         109.35825 108.49856 107.49285 106.49309 105.40970
           A2         109.61232 110.47753 111.38514 112.28013 113.21700
           A3         109.60391 110.45733 111.37643 112.30650 113.21188
           D1        -119.88153-118.81660-117.50444-116.18243-114.70989
           D2        -119.88459-118.81574-117.49949-116.20563-114.70926
                          11        12        13        14        15
     Eigenvalues --   -40.10470 -40.08620 -40.06835 -40.05133 -40.03518
           B1           1.60000   1.70000   1.80000   1.90000   2.00000
           B2           1.07503   1.07394   1.07272   1.07190   1.07091
           B3           1.07535   1.07390   1.07303   1.07186   1.07121
           B4           1.07504   1.07396   1.07268   1.07190   1.07091
           A1         104.35852 103.25541 102.19351 101.13867 100.13421
           A2         114.09651 114.92142 115.68207 116.37090 117.01071
           A3         114.09057 114.90876 115.70145 116.36370 117.00737
           D1        -113.27136-111.64933-110.12109-108.48885-106.96517
           D2        -113.26592-111.64767-110.13468-108.48903-106.96798
                          16        17        18        19        20
     Eigenvalues --   -40.01995 -40.00562 -39.99217 -39.97954 -39.96770
           B1           2.10000   2.20000   2.30000   2.40000   2.50000
           B2           1.07040   1.06971   1.06938   1.06908   1.06889
           B3           1.07037   1.06996   1.06944   1.06912   1.06890
           B4           1.07041   1.06969   1.06936   1.06908   1.06889
           A1          99.17190  98.24114  97.44303  96.68310  96.00309
           A2         117.52487 118.00087 118.38460 118.71692 118.98152
           A3         117.51099 118.01760 118.38951 118.71055 118.96338
           D1        -105.40559-103.97811-102.69707-101.42128-100.24774
           D2        -105.40972-103.98399-102.68827-101.41420-100.24861
                          21        22        23        24        25
     Eigenvalues --   -39.95659 -39.94616 -39.93635 -39.92711 -39.91842
           B1           2.60000   2.70000   2.80000   2.90000   3.00000
           B2           1.06877   1.06872   1.06871   1.06873   1.06877
           B3           1.06878   1.06872   1.06870   1.06872   1.06876
           B4           1.06878   1.06873   1.06872   1.06874   1.06878
           A1          95.39520  94.85512  94.37627  93.95222  93.57660
           A2         119.19080 119.35424 119.48141 119.58040 119.65780
           A3         119.16438 119.32354 119.45003 119.55088 119.63163
           D1         -99.18511 -98.23824 -97.40173 -96.66648 -96.02129
           D2         -99.19664 -98.26005 -97.43183 -96.70217 -96.05979
                          26        27        28        29        30
     Eigenvalues --   -39.91024 -39.90255 -39.89532 -39.88855 -39.88223
           B1           3.10000   3.20000   3.30000   3.40000   3.50000
           B2           1.06882   1.06888   1.06894   1.06900   1.06905
           B3           1.06881   1.06887   1.06893   1.06899   1.06905
           B4           1.06883   1.06888   1.06894   1.06900   1.06906
           A1          93.24338  92.94707  92.68273  92.44611  92.23360
           A2         119.71879 119.76730 119.80629 119.83794 119.86387
           A3         119.69661 119.74917 119.79190 119.82681 119.85547
           D1         -95.45451 -94.95507 -94.51297 -94.11963 -93.76789
           D2         -95.49337 -94.99239 -94.54741 -94.15036 -93.79450
                          31
     Eigenvalues --   -39.87634
           B1           3.60000
           B2           1.06911
           B3           1.06910
           B4           1.06911
           A1          92.04224
           A2         119.88528
           A3         119.87907
           D1         -93.45195
           D2         -93.47436
 Largest change from initial coordinates is atom    2       1.828 Angstoms.
 Leave Link  103 at Sun Apr 10 21:26:58 2016, MaxMem=   33554432 cpu:       0.0
 (Enter /software/gaussian-09RevA.02-el6-x86_64/g09/l202.exe)
 ---------------------------------------------------------------------------------------------------
                            Z-MATRIX (ANGSTROMS AND DEGREES)
   CD    Cent   Atom    N1       Length/X        N2       Alpha/Y        N3        Beta/Z          J
 ---------------------------------------------------------------------------------------------------
      1      1  C 
      2      2  H        1   3.600000(     1)
      3      3  H        1   1.069106(     2)      2   92.042(     5)
      4      4  H        1   1.069104(     3)      3  119.885(     6)      2  -93.452(     8)      0
      5      5  H        1   1.069108(     4)      4  119.879(     7)      2  -93.474(     9)      0
 ---------------------------------------------------------------------------------------------------
                         Z-Matrix orientation:                         
 ---------------------------------------------------------------------
 Center     Atomic      Atomic             Coordinates (Angstroms)
 Number     Number       Type             X           Y           Z
 ---------------------------------------------------------------------
      1          6           0        0.000000    0.000000    0.000000
      2          1           0        0.000000    0.000000    3.600000
      3          1           0        1.068426    0.000000   -0.038099
      4          1           0       -0.534348   -0.925258   -0.036794
      5          1           0       -0.534110    0.925358   -0.037815
 ---------------------------------------------------------------------
                    Distance matrix (angstroms):
                    1          2          3          4          5
     1  C    0.000000
     2  H    3.600000   0.000000
     3  H    1.069106   3.791741   0.000000
     4  H    1.069104   3.790501   1.850673   0.000000
     5  H    1.069108   3.791472   1.850516   1.850617   0.000000
 Stoichiometry    CH4
 Framework group  C1[X(CH4)]
 Deg. of freedom     9
 Full point group                 C1      NOp   1
 Largest Abelian subgroup         C1      NOp   1
 Largest concise Abelian subgroup C1      NOp   1
                         Standard orientation:                         
 ---------------------------------------------------------------------
 Center     Atomic      Atomic             Coordinates (Angstroms)
 Number     Number       Type             X           Y           Z
 ---------------------------------------------------------------------
      1          6           0        0.348729    0.000050   -0.000009
      2          1           0       -3.251271   -0.000413   -0.000009
      3          1           0        0.386917   -0.692286   -0.813765
      4          1           0        0.385388    1.051026   -0.192597
      5          1           0        0.386590   -0.358630    1.006423
 ---------------------------------------------------------------------
 Rotational constants (GHZ):    146.4219544     36.0450420     36.0441671
 Leave Link  202 at Sun Apr 10 21:26:58 2016, MaxMem=   33554432 cpu:       0.0
 (Enter /software/gaussian-09RevA.02-el6-x86_64/g09/l601.exe)
 Copying SCF densities to generalized density rwf, IOpCl= 1 IROHF=0.

 **********************************************************************

            Population analysis using the SCF density.

 **********************************************************************

 Orbital symmetries:
 Alpha Orbitals:
       Occupied  (A) (A) (A) (A) (A)
       Virtual   (A) (A) (A) (A) (A) (A) (A) (A) (A) (A) (A) (A)
 Beta  Orbitals:
       Occupied  (A) (A) (A) (A) (A)
       Virtual   (A) (A) (A) (A) (A) (A) (A) (A) (A) (A) (A) (A)
 The electronic state is 1-A.
 Alpha  occ. eigenvalues --  -11.34249  -0.98419  -0.65354  -0.65351  -0.23275
 Alpha virt. eigenvalues --   -0.05118   0.22030   0.28263   0.28264   0.69021
 Alpha virt. eigenvalues --    0.69024   0.75048   0.88696   1.11005   1.17263
 Alpha virt. eigenvalues --    1.18927   1.18932
  Beta  occ. eigenvalues --  -11.34249  -0.98419  -0.65354  -0.65351  -0.23275
  Beta virt. eigenvalues --   -0.05118   0.22030   0.28263   0.28264   0.69021
  Beta virt. eigenvalues --    0.69024   0.75048   0.88696   1.11005   1.17263
  Beta virt. eigenvalues --    1.18927   1.18932
          Condensed to atoms (all electrons):
              1          2          3          4          5
     1  C    5.225046   0.032136   0.373131   0.373137   0.373131
     2  H    0.032136   1.260155  -0.000019  -0.000019  -0.000019
     3  H    0.373131  -0.000019   0.448528  -0.022272  -0.022292
     4  H    0.373137  -0.000019  -0.022272   0.448466  -0.022277
     5  H    0.373131  -0.000019  -0.022292  -0.022277   0.448532
 Mulliken atomic charges:
              1
     1  C   -0.376581
     2  H   -0.292234
     3  H    0.222925
     4  H    0.222965
     5  H    0.222925
 Sum of Mulliken atomic charges =   0.00000
 Mulliken charges with hydrogens summed into heavy atoms:
              1
     1  C    0.000000
 Sum of Mulliken charges with hydrogens summed into heavy atoms =   0.00000
          Atomic-Atomic Spin Densities.
              1          2          3          4          5
     1  C    0.000000   0.000000   0.000000   0.000000   0.000000
     2  H    0.000000   0.000000   0.000000   0.000000   0.000000
     3  H    0.000000   0.000000   0.000000   0.000000   0.000000
     4  H    0.000000   0.000000   0.000000   0.000000   0.000000
     5  H    0.000000   0.000000   0.000000   0.000000   0.000000
 Mulliken atomic spin densities:
              1
     1  C    0.000000
     2  H    0.000000
     3  H    0.000000
     4  H    0.000000
     5  H    0.000000
 Sum of Mulliken atomic spin densities =   0.00000
 Electronic spatial extent (au):  <R**2>=             84.2103
 Charge=              0.0000 electrons
 Dipole moment (field-independent basis, Debye):
    X=              5.1556    Y=              0.0008    Z=              0.0000  Tot=              5.1556
 Quadrupole moment (field-independent basis, Debye-Ang):
   XX=            -23.8075   YY=             -8.2896   ZZ=             -8.2903
   XY=             -0.0033   XZ=             -0.0001   YZ=              0.0000
 Traceless Quadrupole moment (field-independent basis, Debye-Ang):
   XX=            -10.3450   YY=              5.1729   ZZ=              5.1721
   XY=             -0.0033   XZ=             -0.0001   YZ=              0.0000
 Octapole moment (field-independent basis, Debye-Ang**2):
  XXX=             55.6439  YYY=              0.9160  ZZZ=              0.5526  XYY=              4.4168
  XXY=              0.0051  XXZ=              0.0001  XZZ=              4.4181  YZZ=             -0.9131
  YYZ=             -0.5525  XYZ=              0.0005
 Hexadecapole moment (field-independent basis, Debye-Ang**3):
 XXXX=           -284.6090 YYYY=            -14.3382 ZZZZ=            -14.3390 XXXY=             -0.0247
 XXXZ=             -0.0005 YYYX=              0.3537 YYYZ=             -0.0001 ZZZX=              0.2183
 ZZZY=             -0.0001 XXYY=            -26.2939 XXZZ=            -26.2927 YYZZ=             -4.7797
 XXYZ=              0.0004 YYXZ=             -0.2185 ZZXY=             -0.3638
 N-N= 1.106803732580D+01 E-N=-1.710758583794D+02  KE= 5.984218532426D+01
                          Isotropic Fermi Contact Couplings
        Atom                 a.u.       MegaHertz       Gauss      10(-4) cm-1
     1  C(13)              0.00000       0.00001       0.00000       0.00000
     2  H(1)               0.00000      -0.00011      -0.00004      -0.00004
     3  H(1)               0.00000       0.00000       0.00000       0.00000
     4  H(1)               0.00000       0.00000       0.00000       0.00000
     5  H(1)               0.00000       0.00000       0.00000       0.00000
 --------------------------------------------------------
       Center         ----  Spin Dipole Couplings  ----
                      3XX-RR        3YY-RR        3ZZ-RR
 --------------------------------------------------------
     1   Atom        0.000000      0.000000      0.000000
     2   Atom        0.000000      0.000000      0.000000
     3   Atom        0.000000      0.000000      0.000000
     4   Atom        0.000000      0.000000      0.000000
     5   Atom        0.000000      0.000000      0.000000
 --------------------------------------------------------
                        XY            XZ            YZ
 --------------------------------------------------------
     1   Atom        0.000000      0.000000      0.000000
     2   Atom        0.000000      0.000000      0.000000
     3   Atom        0.000000      0.000000      0.000000
     4   Atom        0.000000      0.000000      0.000000
     5   Atom        0.000000      0.000000      0.000000
 --------------------------------------------------------


 ---------------------------------------------------------------------------------
              Anisotropic Spin Dipole Couplings in Principal Axis System
 ---------------------------------------------------------------------------------

       Atom             a.u.   MegaHertz   Gauss  10(-4) cm-1        Axes

              Baa     0.0000     0.000     0.000     0.000 -0.0009  0.9988 -0.0480
     1 C(13)  Bbb     0.0000     0.000     0.000     0.000 -0.0001  0.0480  0.9988
              Bcc     0.0000     0.000     0.000     0.000  1.0000  0.0009  0.0000
 
              Baa     0.0000     0.000     0.000     0.000  0.0000  0.9773 -0.2121
     2 H(1)   Bbb     0.0000     0.000     0.000     0.000  0.0000  0.2121  0.9773
              Bcc     0.0000     0.000     0.000     0.000  1.0000  0.0000  0.0000
 
              Baa     0.0000     0.000     0.000     0.000 -0.0007  0.7616 -0.6480
     3 H(1)   Bbb     0.0000     0.000     0.000     0.000  1.0000  0.0039  0.0035
              Bcc     0.0000     0.000     0.000     0.000 -0.0052  0.6480  0.7616
 
              Baa     0.0000     0.000     0.000     0.000 -0.0002  0.1802  0.9836
     4 H(1)   Bbb     0.0000     0.000     0.000     0.000  1.0000 -0.0038  0.0009
              Bcc     0.0000     0.000     0.000     0.000  0.0039  0.9836 -0.1802
 
              Baa     0.0000     0.000     0.000     0.000 -0.0009  0.9420  0.3357
     5 H(1)   Bbb     0.0000     0.000     0.000     0.000  1.0000  0.0025 -0.0043
              Bcc     0.0000     0.000     0.000     0.000  0.0049 -0.3357  0.9420
 

 ---------------------------------------------------------------------------------

 No NMR shielding tensors so no spin-rotation constants.
 Leave Link  601 at Sun Apr 10 21:26:58 2016, MaxMem=   33554432 cpu:       0.2
 (Enter /software/gaussian-09RevA.02-el6-x86_64/g09/l9999.exe)
 1\1\GINC-MIDWAY219\Scan\UHF\6-31G\C1H4\ROOT\10-Apr-2016\1\\#p uhf/6-31
 g Opt(Z-matrix)\\CH4 C-H Scan\\0,1\C\H,1,B1\H,1,B2,2,A1\H,1,B3,3,A2,2,
 D1,0\H,1,B4,4,A3,2,D2,0\\B1=3.6,s,30,0.1\B2=1.06910552\B3=1.06910434\B
 4=1.06910754\A1=92.04224371\A2=119.88527521\A3=119.87907018\D1=-93.451
 95478\D2=-93.47436071\\Version=EM64L-G09RevA.02\State=1-A\HF=-39.69894
 31,-39.9498401,-40.0825103,-40.1481157,-40.175236,-40.1803473,-40.1731
 219,-40.1592555,-40.1420805,-40.1235291,-40.1046994,-40.0862007,-40.06
 83548,-40.0513252,-40.0351833,-40.0199521,-40.0056222,-39.992166,-39.9
 795425,-39.9677021,-39.9565911,-39.9461557,-39.9363451,-39.9271137,-39
 .9184231,-39.9102422,-39.9025475,-39.8953216,-39.8885515,-39.8822271,-
 39.876339\S2=0.,0.,0.,0.,0.,0.,0.,0.,0.,0.,0.,0.,0.,0.,0.,0.,0.,0.,0.,
 0.,0.,0.,0.,0.,0.,0.,0.,0.,0.,0.,0.\S2-1=0.,0.,0.,0.,0.,0.,0.,0.,0.,0.
 ,0.,0.,0.,0.,0.,0.,0.,0.,0.,0.,0.,0.,0.,0.,0.,0.,0.,0.,0.,0.,0.\S2A=0.
 ,0.,0.,0.,0.,0.,0.,0.,0.,0.,0.,0.,0.,0.,0.,0.,0.,0.,0.,0.,0.,0.,0.,0.,
 0.,0.,0.,0.,0.,0.,0.\RMSD=9.639e-09,4.367e-09,2.794e-09,7.557e-09,5.97
 9e-09,4.251e-09,1.267e-09,4.889e-09,4.286e-09,4.660e-09,2.212e-09,3.94
 0e-09,3.607e-09,5.902e-09,8.721e-09,9.915e-09,1.395e-09,3.921e-09,3.77
 8e-09,3.578e-10,8.776e-09,7.022e-09,7.905e-09,6.505e-09,6.412e-09,3.73
 5e-09,9.772e-09,2.626e-09,5.764e-09,6.558e-09,7.093e-09\PG=C01 [X(C1H4
 )]\\@


 GETTING A SIMPLE ANSWER FROM A PROFESSOR IS LIKE
 GETTING A THIMBLE OF WATER FROM A FIRE HYDRANT.
     -- PROF. LEN SHAPIRO, NDSU
 Job cpu time:  0 days  0 hours  1 minutes  6.8 seconds.
 File lengths (MBytes):  RWF=     87 Int=      0 D2E=      0 Chk=      2 Scr=      2
 Normal termination of Gaussian 09 at Sun Apr 10 21:26:58 2016.
