H20 MCSCF/3-21G                                                         
Freq      CASSCF                                                      3-21G               
Number of atoms                            I                3
Info1-9                                    I   N=           9
          12          12        1002           0           0         100
           6           1           2
Charge                                     I                0
Multiplicity                               I                1
Number of electrons                        I               10
Number of alpha electrons                  I                5
Number of beta electrons                   I                5
Number of basis functions                  I               13
Number of independent functions            I               13
Number of point charges in /Mol/           I                0
Number of translation vectors              I                0
Atomic numbers                             I   N=           3
           8           1           1
Nuclear charges                            R   N=           3
  8.00000000E+00  1.00000000E+00  1.00000000E+00
Current cartesian coordinates              R   N=           9
 -7.39557099E-32  0.00000000E+00  2.16783309E-01  7.88860905E-31  1.48612512E+00
 -8.67133236E-01 -1.81997838E-16 -1.48612512E+00 -8.67133236E-01
Force Field                                I                0
Int Atom Types                             I   N=           3
           0           0           0
MM charges                                 R   N=           3
  0.00000000E+00  0.00000000E+00  0.00000000E+00
Integer atomic weights                     I   N=           3
          16           1           1
Real atomic weights                        R   N=           3
  1.59949146E+01  1.00782504E+00  1.00782504E+00
Atom fragment info                         I   N=           3
           0           0           0
Atom residue num                           I   N=           3
           0           0           0
Nuclear spins                              I   N=           3
           0           1           1
Nuclear ZEff                               R   N=           3
 -5.60000000E+00 -1.00000000E+00 -1.00000000E+00
Nuclear QMom                               R   N=           3
  0.00000000E+00  0.00000000E+00  0.00000000E+00
Nuclear GFac                               R   N=           3
  0.00000000E+00  2.79284600E+00  2.79284600E+00
MicOpt                                     I   N=           3
          -1          -1          -1
Number of contracted shells                I                7
Number of primitive shells                 I               12
Pure/Cartesian d shells                    I                1
Pure/Cartesian f shells                    I                0
Highest angular momentum                   I                1
Largest degree of contraction              I                3
Shell types                                I   N=           7
           0          -1          -1           0           0           0
           0
Number of primitives per shell             I   N=           7
           3           2           1           2           1           2
           1
Shell to atom map                          I   N=           7
           1           1           1           2           2           3
           3
Primitive exponents                        R   N=          12
  3.22037000E+02  4.84308000E+01  1.04206000E+01  7.40294000E+00  1.57620000E+00
  3.73684000E-01  5.44717800E+00  8.24547240E-01  1.83191580E-01  5.44717800E+00
  8.24547240E-01  1.83191580E-01
Contraction coefficients                   R   N=          12
  5.92393934E-02  3.51499961E-01  7.07657921E-01 -4.04453583E-01  1.22156176E+00
  1.00000000E+00  1.56284979E-01  9.04690877E-01  1.00000000E+00  1.56284979E-01
  9.04690877E-01  1.00000000E+00
P(S=P) Contraction coefficients            R   N=          12
  0.00000000E+00  0.00000000E+00  0.00000000E+00  2.44586107E-01  8.53955373E-01
  1.00000000E+00  0.00000000E+00  0.00000000E+00  0.00000000E+00  0.00000000E+00
  0.00000000E+00  0.00000000E+00
Coordinates of each shell                  R   N=          21
 -7.39557099E-32  0.00000000E+00  2.16783309E-01 -7.39557099E-32  0.00000000E+00
  2.16783309E-01 -7.39557099E-32  0.00000000E+00  2.16783309E-01  7.88860905E-31
  1.48612512E+00 -8.67133236E-01  7.88860905E-31  1.48612512E+00 -8.67133236E-01
 -1.81997838E-16 -1.48612512E+00 -8.67133236E-01 -1.81997838E-16 -1.48612512E+00
 -8.67133236E-01
Constraint Structure                       R   N=           9
 -7.39557099E-32  0.00000000E+00  2.16783309E-01  7.88860905E-31  1.48612512E+00
 -8.67133236E-01 -1.81997838E-16 -1.48612512E+00 -8.67133236E-01
Num ILSW                                   I              100
ILSW                                       I   N=         100
           0           1           0           0           0           0
           0           0           0           0           0          -1
           0           0           0           0           0           0
           0           0           0           3           1           0
           1           0           0           0           1           0
           0           0      100000           0          -1           0
           0           0           0           0           0           0
           0           0           0           1           0           0
           0           0           1           0           0           0
           0           0           4          40           0           0
           0           0           0           0           0           0
           0           0           0           0           0           0
           0           0           0           0           0           0
           0           0           0           0           0           0
           0           0           0           0           0           0
           0           0           0           0           0           0
           0           0           0           0
Num RLSW                                   I               40
RLSW                                       R   N=          40
  1.00000000E+00  1.00000000E+00  1.00000000E+00  1.00000000E+00  1.00000000E+00
  0.00000000E+00  0.00000000E+00  1.00000000E+00  0.00000000E+00  0.00000000E+00
  0.00000000E+00  0.00000000E+00  1.00000000E+00  0.00000000E+00  0.00000000E+00
  0.00000000E+00  0.00000000E+00  1.00000000E+00  0.00000000E+00  0.00000000E+00
  0.00000000E+00  0.00000000E+00  1.00000000E+00  0.00000000E+00  0.00000000E+00
  0.00000000E+00  0.00000000E+00  1.00000000E+00  0.00000000E+00  0.00000000E+00
  0.00000000E+00  0.00000000E+00  0.00000000E+00  0.00000000E+00  0.00000000E+00
  0.00000000E+00  0.00000000E+00  0.00000000E+00  1.00000000E+00  1.00000000E+00
MxBond                                     I                2
NBond                                      I   N=           3
           2           1           1
IBond                                      I   N=           6
           2           3           1           0           1           0
RBond                                      R   N=           6
  1.00000000E+00  1.00000000E+00  1.00000000E+00  0.00000000E+00  1.00000000E+00
  0.00000000E+00
Virial Ratio                               R      0.000000000000000E+00
SCF Energy                                 R     -7.560142018534654E+01
Total Energy                               R     -7.560142018534654E+01
RMS Force                                  R      2.077498533827013E-04
External E-field                           R   N=          35
  0.00000000E+00  0.00000000E+00  0.00000000E+00  0.00000000E+00  0.00000000E+00
  0.00000000E+00  0.00000000E+00  0.00000000E+00  0.00000000E+00  0.00000000E+00
  0.00000000E+00  0.00000000E+00  0.00000000E+00  0.00000000E+00  0.00000000E+00
  0.00000000E+00  0.00000000E+00  0.00000000E+00  0.00000000E+00  0.00000000E+00
  0.00000000E+00  0.00000000E+00  0.00000000E+00  0.00000000E+00  0.00000000E+00
  0.00000000E+00  0.00000000E+00  0.00000000E+00  0.00000000E+00  0.00000000E+00
  0.00000000E+00  0.00000000E+00  0.00000000E+00  0.00000000E+00  0.00000000E+00
IOpCl                                      I                0
IROHF                                      I                3
Alpha Orbital Energies                     R   N=          13
  0.00000000E+00  0.00000000E+00  0.00000000E+00  0.00000000E+00  0.00000000E+00
  0.00000000E+00  0.00000000E+00  0.00000000E+00  0.00000000E+00  0.00000000E+00
  0.00000000E+00  0.00000000E+00  0.00000000E+00
Alpha MO coefficients                      R   N=         169
  9.83621487E-01  9.53007818E-02  5.80807262E-18 -7.18016267E-16 -1.39558694E-03
 -3.82606373E-02  3.98463540E-18 -7.00263427E-16  8.62198048E-03  1.59633746E-03
  6.30120883E-03  1.59633746E-03  6.30120883E-03 -2.32870987E-01  2.19968287E-01
 -1.45842475E-16 -2.07032560E-14  2.17348472E-01  8.01611075E-01 -1.66190304E-16
 -1.93191329E-14  2.51172692E-01  8.50362365E-03 -5.23845987E-02  8.50362365E-03
 -5.23845987E-02 -3.52238878E-14  3.77411726E-14 -1.02179243E-13  3.93850028E-01
 -1.25449462E-13  8.74866237E-14 -1.23671855E-13  3.69374881E-01 -1.44670276E-13
  2.31844888E-01  1.85274350E-01 -2.31844888E-01 -1.85274350E-01  7.18399875E-02
 -7.72978936E-02 -2.59271189E-16  1.36711275E-13  3.97761450E-01 -1.30757969E-01
 -2.88961920E-16  1.27849940E-13  4.51598771E-01 -1.72675957E-01 -1.02094542E-01
 -1.72675957E-01 -1.02094542E-01  3.43569571E-17  8.42069814E-17  5.21484933E-01
  7.73867404E-14  3.58760068E-16 -7.08887109E-16  6.31923739E-01  7.33726404E-14
  6.32455629E-16  4.52253154E-14  3.55090362E-14 -4.54932651E-14 -3.41981988E-14
  1.19208016E-01 -3.10561592E-01 -4.08131080E-16  1.29133558E-13  6.54588425E-01
 -4.59178007E-01 -1.94888495E-16  5.43628694E-14  4.49252232E-02  4.08261150E-01
  3.21451768E-01  4.08261150E-01  3.21451768E-01  1.63277017E-14 -3.64994931E-14
  4.01980585E-16 -3.06337000E-01  8.01866783E-14 -7.84935620E-14  9.63521588E-16
 -7.77808438E-01  1.61475707E-14  3.63599615E-02  1.14377923E+00 -3.63599615E-02
 -1.14377923E+00  1.17000658E-14 -2.99769341E-14  7.00166356E-17 -2.02007281E-01
  6.63839679E-14 -3.47810903E-14 -8.98230464E-17 -4.18401256E-01  6.36724083E-15
  9.64739000E-01 -6.91988107E-01 -9.64739000E-01  6.91988107E-01  1.91607857E-02
  9.37452039E-02 -9.18894344E-17 -7.45565932E-15 -2.65950472E-01 -6.61945943E-01
 -5.17301181E-16  8.13025961E-15  2.87481157E-01 -6.72796870E-01  9.35373491E-01
 -6.72796870E-01  9.35373491E-01 -1.06993084E-16  2.52267430E-16  1.02917468E+00
 -5.54122051E-16  1.30840645E-15  4.40791326E-16 -9.65307952E-01  5.92478150E-16
 -1.76252884E-15 -7.51274411E-16 -1.05574502E-16 -4.75044657E-16 -2.59968051E-16
  7.66443054E-02 -8.98636207E-02  1.42100968E-15 -1.06372707E-14 -8.13432302E-01
 -4.24981990E-01 -1.44734656E-15  2.45813089E-14  1.23482590E+00  5.78545162E-01
  6.68436559E-02  5.78545162E-01  6.68436559E-02  6.35345811E-15 -1.39013085E-14
 -5.58258421E-16 -1.06555011E+00  5.41206794E-14 -2.71803625E-14  4.24415128E-16
  1.41168553E+00 -1.32151755E-14 -1.71120141E-01 -4.74298438E-01  1.71120141E-01
  4.74298438E-01  7.20579413E-02 -1.60922946E+00  1.75545136E-16 -5.04796008E-15
 -1.23562976E-03  2.02184429E+00 -3.85587627E-17  1.69005763E-15 -4.10980362E-01
 -3.41461868E-01 -3.74115563E-01 -3.41461868E-01 -3.74115563E-01
Total SCF Density                          R   N=          91
  2.05394054E+00  7.34771895E-02  1.28148062E-01  9.45113138E-17  2.21293517E-17
  5.43723867E-01  2.29155443E-16 -1.02354214E-15  3.61030531E-16  3.09915632E-01
 -4.60664826E-02  3.14041896E-02  1.95505910E-16  1.44580015E-15  4.15054875E-01
 -4.68048416E-01  3.67431229E-01 -9.68783876E-16 -5.29777143E-16  2.40983518E-01
  1.32499666E+00  1.07706500E-16  2.57118029E-17  6.58872380E-01  5.52891990E-16
  2.64148959E-16 -1.16527430E-15  7.98406764E-01 -4.51486269E-17 -5.80505125E-16
  1.16746535E-15  2.90656447E-01  5.07726278E-16  1.78688292E-16  1.52294006E-15
  2.72594092E-01 -3.54209106E-02  4.25244085E-02  3.60371690E-16 -1.32332117E-15
  4.66827608E-01  2.84298225E-01  4.64765392E-16 -1.56196076E-15  5.31973460E-01
 -2.48225007E-02  2.88459723E-02  1.09887162E-17  1.82435826E-01 -1.29234245E-01
  5.58362622E-02  7.44438291E-17  1.71098658E-01 -1.50545842E-01  1.69143158E-01
  2.27337102E-02 -7.52390016E-03 -6.51840696E-16  1.45790055E-01 -1.00660103E-01
 -5.99477917E-02 -7.40534289E-16  1.36730178E-01 -1.17709394E-01  1.21821808E-01
  9.63047830E-02 -2.48225007E-02  2.88459723E-02 -6.57407285E-18 -1.82435826E-01
 -1.29234245E-01  5.58362622E-02 -8.27056327E-17 -1.71098658E-01 -1.50545842E-01
 -4.56432361E-02 -4.98205766E-02  1.69143158E-01  2.27337102E-02 -7.52390016E-03
  2.24181297E-15 -1.45790055E-01 -1.00660103E-01 -5.99477917E-02  2.65735459E-15
 -1.36730178E-01 -1.17709394E-01 -4.98205766E-02 -4.08599032E-02  1.21821808E-01
  9.63047830E-02
QEq coupling tensors                       R   N=          18
  2.06389570E+00  2.04030855E-15 -1.95718372E+00 -6.32067619E-16  3.36397576E-14
 -1.06711985E-01  3.06391221E-01 -4.45182081E-16 -2.98284883E-01  3.52816794E-16
  3.70783803E-01 -8.10633865E-03  3.06391221E-01  5.80585602E-17 -2.98284883E-01
 -1.10309126E-16 -3.70783803E-01 -8.10633865E-03
Mulliken Charges                           R   N=           3
 -7.10691252E-01  3.55345626E-01  3.55345626E-01
Optimization MaxStp                        I                2
Optimization Job offset                    I                0
Optimization Num results per geometry      I                2
Optimization Num geometry variables        I                9
Opt point       1 Results for each geome   R   N=           2
 -7.56014202E+01  0.00000000E+00
Opt point       1 Geometries               R   N=           9
 -7.39557099E-32  0.00000000E+00  2.16783309E-01  7.88860905E-31  1.48612512E+00
 -8.67133236E-01 -1.81997838E-16 -1.48612512E+00 -8.67133236E-01
Opt point       1 Gradient at each geome   R   N=           9
  6.41190728E-16 -4.19664303E-14 -4.59692562E-04  1.56149751E-14 -1.89029280E-04
  2.29846281E-04 -1.62561658E-14  1.89029280E-04  2.29846281E-04
Optimization Number of geometries          I   N=           1
           1
ONIOM Charges                              I   N=          16
           0           0           0           0           0           0
           0           0           0           0           0           0
           0           0           0           0
ONIOM Multiplicities                       I   N=          16
           1           0           0           0           0           0
           0           0           0           0           0           0
           0           0           0           0
Atom Layers                                I   N=           3
           1           1           1
Atom Modifiers                             I   N=           3
           0           0           0
Force Field                                I                0
Int Atom Modified Types                    I   N=           3
           0           0           0
Link Atoms                                 I   N=           3
           0           0           0
Atom Modified MM Charges                   R   N=           3
  0.00000000E+00  0.00000000E+00  0.00000000E+00
Link Distances                             R   N=          12
  0.00000000E+00  0.00000000E+00  0.00000000E+00  0.00000000E+00  0.00000000E+00
  0.00000000E+00  0.00000000E+00  0.00000000E+00  0.00000000E+00  0.00000000E+00
  0.00000000E+00  0.00000000E+00
Cartesian Gradient                         R   N=           9
  6.41190728E-16 -4.19664303E-14 -4.59692562E-04  1.56149751E-14 -1.89029280E-04
  2.29846281E-04 -1.62561658E-14  1.89029280E-04  2.29846281E-04
Cartesian Force Constants                  R   N=          45
 -3.84968607E-04  2.88962795E-14  7.04059490E-01 -2.19624045E-15  1.79634085E-13
  4.12776114E-01  1.92484303E-04 -1.63432356E-14 -1.54027854E-14 -1.59524782E-04
 -1.59735402E-14 -3.52029745E-01  1.70007251E-01  2.84627376E-15  3.80586651E-01
 -1.62950327E-14  2.56653952E-01 -2.06388057E-01  1.57691687E-14 -2.13330601E-01
  1.96570234E-01  1.92484303E-04 -1.25530439E-14  1.75990258E-14 -3.29595215E-05
  1.31272664E-14  5.25863979E-16 -1.59524782E-04 -1.29227393E-14 -3.52029745E-01
 -1.70007251E-01  1.34969618E-14 -2.85569060E-02 -4.33233505E-02 -5.74222553E-16
  3.80586651E-01  1.84912731E-14 -2.56653952E-01 -2.06388057E-01 -3.66383298E-16
  4.33233505E-02  9.81782291E-03 -1.81248898E-14  2.13330601E-01  1.96570234E-01
