H20 MCSCF/3-21G                                                         
Freq      RCIS-FC                                                     3-21G               
Number of atoms                            I                3
Info1-9                                    I   N=           9
          12          12        1002           0           0         100
           6         101           1
Charge                                     I                0
Multiplicity                               I                1
Number of electrons                        I               10
Number of alpha electrons                  I                5
Number of beta electrons                   I                5
Number of basis functions                  I               13
Number of independent functions            I               13
Number of point charges in /Mol/           I                0
Number of translation vectors              I                0
Atomic numbers                             I   N=           3
           8           1           1
Nuclear charges                            R   N=           3
  8.00000000E+00  1.00000000E+00  1.00000000E+00
Current cartesian coordinates              R   N=           9
 -1.09556675E-30 -7.92822839E-18  7.72138635E-05 -2.36658272E-30  2.27168556E+00
 -3.08855454E-04 -2.78201245E-16 -2.27168556E+00 -3.08855454E-04
Force Field                                I                0
Int Atom Types                             I   N=           3
           0           0           0
MM charges                                 R   N=           3
  0.00000000E+00  0.00000000E+00  0.00000000E+00
Integer atomic weights                     I   N=           3
          16           1           1
Real atomic weights                        R   N=           3
  1.59949146E+01  1.00782504E+00  1.00782504E+00
Atom fragment info                         I   N=           3
           0           0           0
Atom residue num                           I   N=           3
           0           0           0
Nuclear spins                              I   N=           3
           0           1           1
Nuclear ZEff                               R   N=           3
 -5.60000000E+00 -1.00000000E+00 -1.00000000E+00
Nuclear QMom                               R   N=           3
  0.00000000E+00  0.00000000E+00  0.00000000E+00
Nuclear GFac                               R   N=           3
  0.00000000E+00  2.79284600E+00  2.79284600E+00
MicOpt                                     I   N=           3
          -1          -1          -1
Number of contracted shells                I                7
Number of primitive shells                 I               12
Pure/Cartesian d shells                    I                1
Pure/Cartesian f shells                    I                0
Highest angular momentum                   I                1
Largest degree of contraction              I                3
Shell types                                I   N=           7
           0          -1          -1           0           0           0
           0
Number of primitives per shell             I   N=           7
           3           2           1           2           1           2
           1
Shell to atom map                          I   N=           7
           1           1           1           2           2           3
           3
Primitive exponents                        R   N=          12
  3.22037000E+02  4.84308000E+01  1.04206000E+01  7.40294000E+00  1.57620000E+00
  3.73684000E-01  5.44717800E+00  8.24547240E-01  1.83191580E-01  5.44717800E+00
  8.24547240E-01  1.83191580E-01
Contraction coefficients                   R   N=          12
  5.92393934E-02  3.51499961E-01  7.07657921E-01 -4.04453583E-01  1.22156176E+00
  1.00000000E+00  1.56284979E-01  9.04690877E-01  1.00000000E+00  1.56284979E-01
  9.04690877E-01  1.00000000E+00
P(S=P) Contraction coefficients            R   N=          12
  0.00000000E+00  0.00000000E+00  0.00000000E+00  2.44586107E-01  8.53955373E-01
  1.00000000E+00  0.00000000E+00  0.00000000E+00  0.00000000E+00  0.00000000E+00
  0.00000000E+00  0.00000000E+00
Coordinates of each shell                  R   N=          21
 -1.09556675E-30 -7.92822839E-18  7.72138635E-05 -1.09556675E-30 -7.92822839E-18
  7.72138635E-05 -1.09556675E-30 -7.92822839E-18  7.72138635E-05 -2.36658272E-30
  2.27168556E+00 -3.08855454E-04 -2.36658272E-30  2.27168556E+00 -3.08855454E-04
 -2.78201245E-16 -2.27168556E+00 -3.08855454E-04 -2.78201245E-16 -2.27168556E+00
 -3.08855454E-04
Constraint Structure                       R   N=           9
 -1.09556675E-30 -7.92822839E-18  7.72138635E-05 -2.36658272E-30  2.27168556E+00
 -3.08855454E-04 -2.78201245E-16 -2.27168556E+00 -3.08855454E-04
Num ILSW                                   I              100
ILSW                                       I   N=         100
           0           1           0           0           2           0
           0           0           0           0           0          -1
           0           0           0           0           0           0
           0           0           0           0           1           0
           1           0           0           0           0           0
           0           0      100000           0          -1           0
           0           0           0           0           0           0
           0           0           0           1           0           0
           0           0           1           0           0           0
           0           0           4          40           0           0
           0           0           0           0           0           0
           0           0           0           0           0           0
           0           0           0           0           0           0
           0           0           0           0           0           0
           0           0           0           0           0           0
           0           0           0           0           0           0
           0           0           0           0
Num RLSW                                   I               40
RLSW                                       R   N=          40
  1.00000000E+00  1.00000000E+00  1.00000000E+00  1.00000000E+00  1.00000000E+00
  0.00000000E+00  0.00000000E+00  1.00000000E+00  0.00000000E+00  0.00000000E+00
  0.00000000E+00  0.00000000E+00  1.00000000E+00  0.00000000E+00  0.00000000E+00
  0.00000000E+00  0.00000000E+00  1.00000000E+00  0.00000000E+00  0.00000000E+00
  0.00000000E+00  0.00000000E+00  1.00000000E+00  0.00000000E+00  0.00000000E+00
  0.00000000E+00  0.00000000E+00  1.00000000E+00  0.00000000E+00  0.00000000E+00
  0.00000000E+00  0.00000000E+00  0.00000000E+00  0.00000000E+00  0.00000000E+00
  0.00000000E+00  0.00000000E+00  0.00000000E+00  1.00000000E+00  1.00000000E+00
MxBond                                     I                2
NBond                                      I   N=           3
           2           1           1
IBond                                      I   N=           6
           2           3           1           0           1           0
RBond                                      R   N=           6
  1.00000000E+00  1.00000000E+00  1.00000000E+00  0.00000000E+00  1.00000000E+00
  0.00000000E+00
Virial Ratio                               R      2.009267824998958E+00
SCF Energy                                 R     -7.543711027902883E+01
CIS Energy                                 R     -7.529585434923841E+01
Total Energy                               R     -7.529585434923841E+01
Post-SCF wavefunction norm                 R      1.000000000000000E+00
RMS Force                                  R      4.636787024446011E-06
RMS Density                                R      5.045399780015742E-10
External E-field                           R   N=          35
  0.00000000E+00  0.00000000E+00  0.00000000E+00  0.00000000E+00  0.00000000E+00
  0.00000000E+00  0.00000000E+00  0.00000000E+00  0.00000000E+00  0.00000000E+00
  0.00000000E+00  0.00000000E+00  0.00000000E+00  0.00000000E+00  0.00000000E+00
  0.00000000E+00  0.00000000E+00  0.00000000E+00  0.00000000E+00  0.00000000E+00
  0.00000000E+00  0.00000000E+00  0.00000000E+00  0.00000000E+00  0.00000000E+00
  0.00000000E+00  0.00000000E+00  0.00000000E+00  0.00000000E+00  0.00000000E+00
  0.00000000E+00  0.00000000E+00  0.00000000E+00  0.00000000E+00  0.00000000E+00
IOpCl                                      I                0
IROHF                                      I                0
Alpha Orbital Energies                     R   N=          13
 -2.03517057E+01 -1.15044215E+00 -5.78126753E-01 -3.92388005E-01 -3.92387997E-01
  1.02807119E-01  3.38251401E-01  1.03272540E+00  1.20294726E+00  1.85505527E+00
  1.85505528E+00  2.32863172E+00  2.96509687E+00
Alpha MO coefficients                      R   N=         169
  9.83015537E-01  9.35105720E-02  0.00000000E+00  0.00000000E+00 -1.62618105E-06
 -3.12224219E-02  0.00000000E+00  0.00000000E+00  1.44701510E-06  6.41437769E-04
  5.07028251E-03  6.41437769E-04  5.07028251E-03 -2.35852812E-01  2.17622259E-01
  0.00000000E+00  0.00000000E+00 -1.63298123E-05  7.49899749E-01  0.00000000E+00
  0.00000000E+00 -2.60362955E-05  8.19377651E-02  5.50668830E-02  8.19377651E-02
  5.50668830E-02  0.00000000E+00  0.00000000E+00  0.00000000E+00  3.30069176E-01
  0.00000000E+00  0.00000000E+00  0.00000000E+00  3.77861629E-01  0.00000000E+00
  1.93889040E-01  2.36181339E-01 -1.93889040E-01 -2.36181339E-01  0.00000000E+00
  0.00000000E+00  5.09988808E-01  0.00000000E+00  0.00000000E+00  0.00000000E+00
  6.42636909E-01  0.00000000E+00  0.00000000E+00  0.00000000E+00  0.00000000E+00
  0.00000000E+00  0.00000000E+00 -4.00568682E-05  3.80546227E-05  0.00000000E+00
  0.00000000E+00  5.09988779E-01  1.99258665E-04  0.00000000E+00  0.00000000E+00
  6.42636880E-01 -7.23628928E-05 -1.21498711E-04 -7.23628928E-05 -1.21498711E-04
 -1.21035966E-01  6.24637945E-02  0.00000000E+00  0.00000000E+00 -1.43630156E-04
  8.14279121E-01  0.00000000E+00  0.00000000E+00 -2.31254962E-04 -1.95484983E-01
 -6.89896888E-01 -1.95484983E-01 -6.89896888E-01  0.00000000E+00  0.00000000E+00
  0.00000000E+00 -3.28448785E-01  0.00000000E+00  0.00000000E+00  0.00000000E+00
 -8.24254698E-01  0.00000000E+00  1.91456037E-02  8.94336324E-01 -1.91456037E-02
 -8.94336324E-01  9.21513299E-03 -5.47660312E-02  0.00000000E+00  0.00000000E+00
  4.31974388E-05  3.54881102E-01  0.00000000E+00  0.00000000E+00  7.82904710E-06
  8.92055776E-01 -7.98706306E-01  8.92055776E-01 -7.98706306E-01  0.00000000E+00
  0.00000000E+00  0.00000000E+00 -3.81729751E-01  0.00000000E+00  0.00000000E+00
  0.00000000E+00  3.85485811E-02  0.00000000E+00  8.78879731E-01 -7.08022685E-01
 -8.78879731E-01  7.08022685E-01  0.00000000E+00  0.00000000E+00  1.03491955E+00
  0.00000000E+00  0.00000000E+00  0.00000000E+00 -9.58209193E-01  0.00000000E+00
  0.00000000E+00  0.00000000E+00  0.00000000E+00  0.00000000E+00  0.00000000E+00
 -3.98906447E-06  1.99190635E-06  0.00000000E+00  0.00000000E+00  1.03491955E+00
  3.43500804E-05  0.00000000E+00  0.00000000E+00 -9.58209197E-01 -4.56759052E-05
 -2.36512841E-05 -4.56759052E-05 -2.36512841E-05  0.00000000E+00  0.00000000E+00
  0.00000000E+00 -1.05423392E+00  0.00000000E+00  0.00000000E+00  0.00000000E+00
  1.43584205E+00  0.00000000E+00 -4.54221100E-01 -1.89173864E-01  4.54221100E-01
  1.89173864E-01  1.14097102E-01 -1.57061596E+00  0.00000000E+00  0.00000000E+00
  2.07117467E-05  1.58910913E+00  0.00000000E+00  0.00000000E+00 -5.54630467E-05
 -6.83118127E-02 -2.75281075E-01 -6.83118127E-02 -2.75281075E-01
Total SCF Density                          R   N=          91
  2.04389219E+00  8.11910435E-02  1.12207353E-01  0.00000000E+00  0.00000000E+00
  5.20177168E-01  0.00000000E+00  0.00000000E+00 -6.60979157E-31  2.17891322E-01
 -3.63513648E-05  3.14032696E-05  2.56467116E-32  0.00000000E+00  5.20177111E-01
 -4.15116196E-01  3.20550518E-01  8.81795962E-36  0.00000000E+00  1.78849469E-04
  1.12664903E+00  0.00000000E+00  0.00000000E+00  6.55475262E-01 -7.05660732E-31
  1.67646645E-31  0.00000000E+00  8.25964394E-01  0.00000000E+00  0.00000000E+00
 -8.08890577E-31  2.49440953E-01  1.73151264E-48  0.00000000E+00 -9.98402083E-31
  2.85558821E-01 -3.63576980E-05  3.78490755E-05  3.23174223E-32  0.00000000E+00
  6.55475197E-01  2.16962352E-04  4.07231851E-32  0.00000000E+00  8.25964322E-01
 -3.73894122E-02  3.57829201E-02 -8.62816615E-32  1.27993591E-01 -7.64866695E-05
  1.22850136E-01 -9.86076132E-32  1.46526457E-01 -9.72709827E-05  8.86143477E-02
 -1.60070157E-02  2.49157998E-02 -1.04770589E-31  1.55912360E-01 -1.25740913E-04
  8.22726221E-02 -1.20178029E-31  1.78487731E-01 -1.59011907E-04  1.00616583E-01
  1.17679418E-01 -3.73894122E-02  3.57829201E-02  8.62816615E-32 -1.27993591E-01
 -7.64866695E-05  1.22850136E-01  9.86076132E-32 -1.46526457E-01 -9.72709827E-05
 -6.17574916E-02 -8.25553093E-02  8.86143477E-02 -1.60070157E-02  2.49157998E-02
  1.04770589E-31 -1.55912360E-01 -1.25740913E-04  8.22726221E-02  1.20178029E-31
 -1.78487731E-01 -1.59011907E-04 -8.25553093E-02 -1.05447081E-01  1.00616583E-01
  1.17679418E-01
Total CI Rho(1) Density                    R   N=          91
  2.05945810E+00  6.71009340E-02  1.24961581E-01  0.00000000E+00  0.00000000E+00
  2.60089822E-01  0.00000000E+00  0.00000000E+00 -6.60979157E-31  2.17891322E-01
 -1.38294198E-05  1.10166249E-05  2.56467116E-32  0.00000000E+00  5.20177143E-01
 -5.08224641E-01  4.04831370E-01  8.81795962E-36  0.00000000E+00  4.41332795E-05
  1.68358247E+00  0.00000000E+00  0.00000000E+00  3.27737014E-01 -7.05660732E-31
  1.67646645E-31  0.00000000E+00  4.12983435E-01  0.00000000E+00  0.00000000E+00
 -8.08890577E-31  2.49440953E-01  1.73151264E-48  0.00000000E+00 -9.98402083E-31
  2.85558821E-01 -1.16789300E-05  1.55100957E-05  3.23174223E-32  0.00000000E+00
  6.55475233E-01  6.93450086E-05  4.07231851E-32  0.00000000E+00  8.25964361E-01
 -7.59039121E-03  8.80913675E-03 -8.62816615E-32  1.27993591E-01 -3.33713377E-05
 -5.53942002E-02 -9.86076132E-32  1.46526457E-01 -5.00266901E-05  1.45660643E-01
  6.37545323E-02 -4.72835753E-02 -1.04770589E-31  1.55912360E-01 -1.03362126E-05
 -3.94825171E-01 -1.20178029E-31  1.78487731E-01 -3.25554207E-05  2.53309627E-01
  5.26385440E-01 -7.59039121E-03  8.80913675E-03  8.62816615E-32 -1.27993591E-01
 -3.33713377E-05 -5.53942002E-02  9.86076132E-32 -1.46526457E-01 -5.00266901E-05
 -4.71119637E-03  7.01377353E-02  1.45660643E-01  6.37545323E-02 -4.72835753E-02
  1.04770589E-31 -1.55912360E-01 -1.03362126E-05 -3.94825171E-01  1.20178029E-31
 -1.78487731E-01 -3.25554207E-05  7.01377353E-02  3.03258941E-01  2.53309627E-01
  5.26385440E-01
Total CI Density                           R   N=          91
  2.06764977E+00  4.72919099E-02  1.52680404E-01 -2.24435082E-18  7.64187992E-19
  2.49929677E-01  1.25212802E-17 -1.82093900E-17  2.15570048E-18  3.01279584E-01
 -3.24479014E-06  4.20779242E-06 -3.26858684E-21  3.27453544E-20  5.99176906E-01
 -5.25583814E-01  4.58618940E-01  1.59131345E-17 -7.03201621E-17  4.91799509E-06
  1.72166975E+00 -3.03244806E-18  1.43867941E-18  3.26039142E-01  2.76861414E-18
 -3.67185560E-21  2.15899872E-17  4.24837264E-01 -2.80867172E-17  2.12030708E-17
  1.05231861E-18  3.38475769E-01  6.19487406E-20  6.33669226E-17  1.38580324E-18
  3.80127090E-01  1.20879091E-06  3.20100532E-06 -4.48427823E-21  3.83597736E-20
  6.68676985E-01 -2.06689978E-06 -5.09776896E-21  7.37008354E-20  7.33795478E-01
  1.23162632E-04  5.43043042E-03 -4.39442781E-18  1.32752071E-01 -2.16939488E-05
 -8.29712188E-02 -5.33755006E-18  1.48198203E-01 -2.15626890E-05  1.15992761E-01
  7.31457761E-02 -5.43773461E-02 -1.51843672E-17  1.45457498E-01  3.26425756E-06
 -4.29624622E-01 -1.89814175E-17  1.61919728E-01  6.25816126E-06  2.09382022E-01
  4.63393777E-01  1.23162632E-04  5.43043042E-03 -8.90674569E-19 -1.32752071E-01
 -2.16939488E-05 -8.29712188E-02 -9.83815794E-19 -1.48198203E-01 -2.15626890E-05
  1.19881956E-02  1.01783973E-01  1.15992761E-01  7.31457761E-02 -5.43773461E-02
 -1.42723759E-17 -1.45457498E-01  3.26425756E-06 -4.29624622E-01 -1.79069435E-17
 -1.61919728E-01  6.25816126E-06  1.01783973E-01  3.55583021E-01  2.09382022E-01
  4.63393777E-01
QEq coupling tensors                       R   N=          18
 -2.09886437E+00  8.23609721E-17 -1.31647582E+00  1.29745274E-20 -2.10064171E-19
  3.41534019E+00  6.04712475E-02  5.27326021E-19 -1.50684521E-01  1.11705532E-22
  5.04420294E-05  9.02132737E-02  6.04712475E-02 -2.31095233E-17 -1.50684521E-01
 -5.82029493E-21 -5.04420294E-05  9.02132737E-02
Mulliken Charges                           R   N=           3
 -8.80093256E-01  4.40046628E-01  4.40046628E-01
Optimization MaxStp                        I                2
Optimization Job offset                    I                0
Optimization Num results per geometry      I                2
Optimization Num geometry variables        I                9
Opt point       1 Results for each geome   R   N=           2
 -7.52958543E+01  0.00000000E+00
Opt point       1 Geometries               R   N=           9
 -1.09556675E-30 -7.92822839E-18  7.72138635E-05 -2.36658272E-30  2.27168556E+00
 -3.08855454E-04 -2.78201245E-16 -2.27168556E+00 -3.08855454E-04
Opt point       1 Gradient at each geome   R   N=           9
  1.60799006E-16 -4.24348869E-16  2.75987202E-07  4.76521811E-17  9.83320629E-06
 -1.37993601E-07 -2.08451187E-16 -9.83320629E-06 -1.37993601E-07
Optimization Number of geometries          I   N=           1
           1
ONIOM Charges                              I   N=          16
           0           0           0           0           0           0
           0           0           0           0           0           0
           0           0           0           0
ONIOM Multiplicities                       I   N=          16
           1           0           0           0           0           0
           0           0           0           0           0           0
           0           0           0           0
Atom Layers                                I   N=           3
           1           1           1
Atom Modifiers                             I   N=           3
           0           0           0
Force Field                                I                0
Int Atom Modified Types                    I   N=           3
           0           0           0
Link Atoms                                 I   N=           3
           0           0           0
Atom Modified MM Charges                   R   N=           3
  0.00000000E+00  0.00000000E+00  0.00000000E+00
Link Distances                             R   N=          12
  0.00000000E+00  0.00000000E+00  0.00000000E+00  0.00000000E+00  0.00000000E+00
  0.00000000E+00  0.00000000E+00  0.00000000E+00  0.00000000E+00  0.00000000E+00
  0.00000000E+00  0.00000000E+00
Cartesian Gradient                         R   N=           9
  1.60799006E-16 -4.24348869E-16  2.75987202E-07  4.76521811E-17  9.83320629E-06
 -1.37993601E-07 -2.08451187E-16 -9.83320629E-06 -1.37993601E-07
Cartesian Force Constants                  R   N=          45
  2.39459905E-01  3.04330751E-15 -4.44092178E-01 -1.40053334E-15  2.77555756E-17
  7.14291401E-04 -1.19729953E-01 -2.59025519E-15  7.00295380E-16  5.98671402E-02
 -1.16202064E-15  2.22046089E-01  5.82949139E-05  1.08136448E-15  1.30696365E-03
  1.08557290E-15 -3.77976890E-05 -3.57145701E-04 -5.42891893E-16 -1.02486124E-05
  1.80733756E-04 -1.19729953E-01 -4.53052317E-16  7.00237963E-16  5.98628126E-02
  8.06561618E-17 -5.42681002E-16  5.98671402E-02 -1.88128687E-15  2.22046089E-01
 -5.82949139E-05  1.50889071E-15 -2.23353053E-01  4.80463014E-05  3.72396155E-16
  1.30696365E-03  3.14960448E-16  3.77976890E-05 -3.57145701E-04 -1.57403487E-16
 -4.80463014E-05  1.76411945E-04 -1.57556961E-16  1.02486124E-05  1.80733756E-04
Dipole Moment                              R   N=           3
 -3.07581479E-17 -6.66140591E-16 -9.17880324E-05
Dipole Derivatives                         R   N=          27
  2.37796263E-01 -1.95385105E-15  1.56331716E-17  6.73225193E-16  4.49425412E+00
  0.00000000E+00 -4.88079081E-15 -9.71445147E-17 -2.37748046E-01 -1.18898131E-01
  6.92251126E-15 -7.78250670E-18 -3.42411505E-17 -2.24712706E+00  4.00498309E-05
  2.97106126E-15  4.02101783E-04  1.18874023E-01 -1.18898131E-01 -4.96866022E-15
 -7.85066488E-18 -6.38984042E-16 -2.24712706E+00 -4.00498309E-05  1.90972955E-15
 -4.02101783E-04  1.18874023E-01
Polarizability                             R   N=           6
  1.28786873E+00  1.51856251E-14  4.80332756E+01  6.74502155E-16 -3.55271368E-15
  5.20991499E-01
ETran NETS                                 I               20
ETran NETV                                 I               48
ETran scalars                              I   N=          20
           3          16           1          10           1           0
           0           0           0           0           0           0
           0           0           0           0           0           0
           0           0
ETran spin                                 I   N=           3
           0           0           0
ETran sym                                  I   N=           3
           0           0           0
ETran state values                         R   N=          48
 -7.52958543E+01 -3.64745266E-02  4.46053491E-17  3.65034446E-21 -1.71871857E-01
 -4.05530912E-17 -6.89193280E-21  3.13126085E-21  3.08358274E-04 -1.57009246E-16
  3.48777942E-17  9.11546358E-17  1.16259326E-17 -5.88784672E-17  2.57391532E-05
  1.03845149E-20 -7.52958543E+01  3.56799852E-20  1.14997006E-19 -3.64743781E-02
  7.30781242E-22  3.83323354E-20 -1.71871886E-01  0.00000000E+00  5.09155099E-17
  4.30365545E-21 -6.08521957E-05 -7.28176904E-05 -9.38708093E-06 -1.59393648E-21
  1.16259314E-17  0.00000000E+00 -7.51440341E+01 -2.35513869E-16  3.87254378E-17
  2.61304940E-21 -7.85046229E-17 -3.49013013E-17 -5.93142018E-21  2.69486432E-21
  3.83323354E-20 -5.86661243E-01  5.18551611E-17  7.39253443E-17  1.72850544E-17
  2.49081198E-01 -1.43746258E-20  6.93106223E-21
